------------------------------------------------------------
          Invoking FHI-aims ...

          When using FHI-aims, please cite the following reference:

            Volker Blum, Ralf Gehrke, Felix Hanke, Paula Havu,
            Ville Havu, Xinguo Ren, Karsten Reuter, and Matthias Scheffler,
            'Ab Initio Molecular Simulations with Numeric Atom-Centered Orbitals',
            Computer Physics Communications 180, 2175-2196 (2009)

          In addition, many other developments in FHI-aims are likely important for
          your particular application. If so, please cite them. A partial list of references
          is written at the end of this file. Thank you for giving credit to the authors
          of these developments.

          For general information about FHI-aims please find us at

            https://fhi-aims.org

          Online tutorials can be found at

            https://fhi-aims-club.gitlab.io/tutorials/tutorials-overview/

          For any questions about FHI-aims, please visit our slack channel at

            https://fhi-aims.slack.com

          and our main development and support site at

            https://aims-git.rz-berlin.mpg.de .

          The latter site, in particular, has a wiki to collect information, as well
          as an issue tracker to log discussions, suggest improvements, and report issues
          or bugs. https://aims-git.rz-berlin.mpg.de is also the main development site
          of the project and all new and updated code versions can be obtained there.
          Please send an email to aims-coordinators@ms1p.org and we will add
          you to these sites. They are for you and everyone is welcome there.

------------------------------------------------------------



  Date     :  20260625, Time     :  174157.890
  Time zero on CPU 1             :   0.881470000000000E-01  s.
  Internal wall clock time zero  :           551641317.890  s.

  FHI-aims created a unique identifier for this run for later identification
  aims_uuid : E995692E-BD7E-4E9A-A319-81AE1951193D

  Build configuration of the current instance of FHI-aims
  -------------------------------------------------------
  FHI-aims version      : 260530
  Commit number         : 7a57fd8ff
  CMake host system     : Linux-6.8.0-124-generic
  CMake version         : 3.28.3
  OS Distribution       : Ubuntu 24.04.4 LTS
  Built on              : AMD Ryzen Threadripper PRO 7975WX 32-Cores
  Fortran compiler      : /usr/local/openmpi/bin/mpifort (GNU) version 13.3.0
  Fortran compiler flags: -O3 -march=native -ffree-line-length-none -fallow-argument-mismatch
  C compiler            : /usr/local/openmpi/bin/mpicc (GNU) version 13.3.0
  C compiler flags      : -O3 -march=native -std=gnu99
  C++ compiler          : /usr/local/openmpi/bin/mpicxx (GNU) version 13.3.0
  C++ compiler flags    : -O3 -march=native
  HIP compiler          :
  HIP compiler flags    :
  HIP GPU arch          :
  Using MPI
  Using ScaLAPACK
  Using LibXC
  Using i-PI
  Using RLSY
  Using GREENX
  Linking against: /usr/lib/x86_64-linux-gnu/libscalapack-openmpi.so
                   /usr/lib/x86_64-linux-gnu/libopenblas.so

  Using       28 parallel tasks.
  Task        0 on host jhworkstation reporting.
  Task        1 on host jhworkstation reporting.
  Task        2 on host jhworkstation reporting.
  Task        3 on host jhworkstation reporting.
  Task        4 on host jhworkstation reporting.
  Task        5 on host jhworkstation reporting.
  Task        6 on host jhworkstation reporting.
  Task        7 on host jhworkstation reporting.
  Task        8 on host jhworkstation reporting.
  Task        9 on host jhworkstation reporting.
  Task       10 on host jhworkstation reporting.
  Task       11 on host jhworkstation reporting.
  Task       12 on host jhworkstation reporting.
  Task       13 on host jhworkstation reporting.
  Task       14 on host jhworkstation reporting.
  Task       15 on host jhworkstation reporting.
  Task       16 on host jhworkstation reporting.
  Task       17 on host jhworkstation reporting.
  Task       18 on host jhworkstation reporting.
  Task       19 on host jhworkstation reporting.
  Task       20 on host jhworkstation reporting.
  Task       21 on host jhworkstation reporting.
  Task       22 on host jhworkstation reporting.
  Task       23 on host jhworkstation reporting.
  Task       24 on host jhworkstation reporting.
  Task       25 on host jhworkstation reporting.
  Task       26 on host jhworkstation reporting.
  Task       27 on host jhworkstation reporting.

  Obtaining array dimensions for all initial allocations:
  
  -----------------------------------------------------------------------
  Parsing control.in (first pass over file, find array dimensions only).
  The contents of control.in will be repeated verbatim below
  unless switched off by setting 'verbatim_writeout .false.' .
  in the first line of control.in .
  -----------------------------------------------------------------------
  
  #===============================================================================
  
  # FHI-aims control file: /home/lacoxson/work/fhi-tutorial/fhi-soc-testing/MoS2_unitcell/soc_intermediate/control.in
  
  # Thu Jun 25 17:41:41 2026
  
  #===============================================================================
  xc                                                pbe
  relativistic                                      atomic_zora scalar
  k_grid                                            8 8 1
  output_rs_matrices                                plain
  include_spin_orbit
  output                                            dos -20 10 15001 0.05
  output                                            band 0.00000000 0.00000000 0.00000000 0.50000000 0.00000000 0.00000000 50 Gamma M
  output                                            band 0.50000000 0.00000000 0.00000000 0.33333333 0.33333333 0.00000000 50 M K
  output                                            band 0.33333333 0.33333333 0.00000000 0.00000000 0.00000000 0.00000000 50 K Gamma
  #===============================================================================
  
  ################################################################################
  #
  #  FHI-aims code project
  #  Volker Blum, Fritz Haber Institute Berlin, 2009
  #
  #  Suggested "tight" defaults for S atom (to be pasted into control.in file)
  #
  #  Revised Jan 04, 2011, following tests (SiC) done by Lydia Nemec:
  #     d and g functions of tier 2 now enabled by default.
  #
  ################################################################################
    species               S
  #     global species definitions
    nucleus               16.0
    mass                  32.065
  #
    l_hartree             6
  #
    cut_pot               4.0 2.0 1.0
    basis_dep_cutoff      0.0001
  #
    radial_base    44   7.0000
    radial_multiplier        2
    angular_grids  specified
    division       0.4665  110
    division       0.5810  194
    division       0.7139  302
    division       0.8274  434
    outer_grid     434
  ##################################################################################
  #
  #  Definition of "minimal" basis
  #
  ##################################################################################
  #     valence basis states
      valence      3  s   2.
      valence      3  p   4.
  #     ion occupancy
      ion_occ      3  s   1.
      ion_occ      3  p   3.
  ##################################################################################
  #
  #  Suggested additional basis functions. For production calculations,
  #  uncomment them one after another (the most important basis functions are
  #  listed first).
  #
  #  These were set using pyfhiaims, original may files have additional comments
  #
  ##################################################################################
  #  First tier
               ionic      3  d  auto
               hydro      2  p  1.8
               hydro      4  f  7.0
               ionic      3  s  auto
  #  Second tier
               hydro      4  d  6.2
               hydro      5  g  10.8
  #            hydro      4  p  4.9
  #            hydro      5  f  10.0
  #            hydro      1  s  0.8
  #  Third tier
  #            hydro      3  d  3.9
  #            hydro      3  d  2.7
  #            hydro      5  g  12.0
  #            hydro      4  p  10.4
  #            hydro      5  f  12.4
  #            hydro      2  s  1.9
  #  Fourth tier
  #            hydro      4  d  10.4
  #            hydro      4  p  7.2
  #            hydro      4  d  10.0
  #            hydro      5  g  19.2
  #            hydro      4  s  12.0################################################################################
  #
  #  FHI-aims code project
  #  Volker Blum, Fritz Haber Institute Berlin, 2009
  #
  #  Suggested "tight" defaults for Mo atom (to be pasted into control.in file)
  #
  ################################################################################
    species               Mo
  #     global species definitions
    nucleus               42.0
    mass                  95.94
  #
    l_hartree             6
  #
    cut_pot               4.0 2.0 1.0
    basis_dep_cutoff      0.0001
  #
    radial_base    59   7.0000
    radial_multiplier        2
    angular_grids  specified
    division       0.3117   50
    division       0.6750  110
    division       1.0351  194
    division       1.2073  302
    division       1.6402  434
    outer_grid     434
  ##################################################################################
  #
  #  Definition of "minimal" basis
  #
  ##################################################################################
  #     valence basis states
      valence      5  s   1.
      valence      4  p   6.
      valence      4  d   5.
  #     ion occupancy
      ion_occ      5  s   0.
      ion_occ      4  p   6.
      ion_occ      4  d   4.
  ##################################################################################
  #
  #  Suggested additional basis functions. For production calculations,
  #  uncomment them one after another (the most important basis functions are
  #  listed first).
  #
  #  These were set using pyfhiaims, original may files have additional comments
  #
  ##################################################################################
  #  First tier
               hydro      4  f  8.4
               hydro      3  d  2.8
               ionic      5  p  auto
               hydro      5  g  12.0
               ionic      5  s  auto
  #  Second tier
  #            hydro      4  f  12.4
  #            hydro      3  d  3.3
  #            hydro      6  h  17.2
  #            hydro      4  f  7.6
  #            hydro      3  p  3.0
  #            hydro      1  s  0.65
  #  Third tier
  #            hydro      4  f  29.2
  #            hydro      5  g  11.2
  #            hydro      3  d  6.8
  #            hydro      6  h  14.8
  #            hydro      2  p  2.3
  #            hydro      4  s  3.8
  #  Fourth tier
  #            hydro      5  f  6.8
  #            hydro      5  d  14.8
  #            hydro      6  s  7.8
  #            hydro      5  g  20.8
  #            hydro      5  d  10.4
  #            hydro      5  p  9.8
  #            hydro      5  d  3.2
  
  -----------------------------------------------------------------------
  Completed first pass over input file control.in .
  -----------------------------------------------------------------------
  
  
  -----------------------------------------------------------------------
  Parsing geometry.in (first pass over file, find array dimensions only).
  The contents of geometry.in will be repeated verbatim below
  unless switched off by setting 'verbatim_writeout .false.' .
  in the first line of geometry.in .
  -----------------------------------------------------------------------
  
  #===============================================================================
  # File written by pyfhiaims
  # Thu Jun 25 17:41:41 2026
  #===============================================================================
  lattice_vector 3.162967512611000e+00 -4.948714400000000e-05 0.000000000000000e+00
  lattice_vector -1.581432323074000e+00 2.739103734206000e+00 0.000000000000000e+00
  lattice_vector 0.000000000000000e+00 0.000000000000000e+00 2.319000000000000e+01
  atom_frac    4.900400000000e-07   1.499222000000e-06   4.999999630430e-01 Mo
  atom_frac    6.666664244840e-01   3.333325904130e-01   5.677479840980e-01 S
  atom_frac    6.666664188090e-01   3.333325770320e-01   4.322520528590e-01 S
  hessian_file
  trust_radius 0.0638371379
  
  -----------------------------------------------------------------------
  Completed first pass over input file geometry.in .
  -----------------------------------------------------------------------
  

  Basic array size parameters:
  | Number of species                 :        2
  | Number of atoms                   :        3
  | Number of lattice vectors         :        3
  | Max. basis fn. angular momentum   :        4
  | Max. atomic/ionic basis occupied n:        5
  | Max. number of basis fn. types    :        3
  | Max. radial fns per species/type  :       10
  | Max. logarithmic grid size        :     1436
  | Max. radial integration grid size :      119
  | Max. angular integration grid size:      434
  | Max. angular grid division number :        8
  | Radial grid for Hartree potential :     1436
  | Number of spin channels           :        1

  Definition of standardized fundamental physical constants in this FHI-aims run:
  | Using the set of values used in FHI-aims up to 2024, which combines values from
  | different CODATA sets - see constants.f90.
  | Use the 'codata' keyword in control.in to change this selection.

  Memory overcommitment is allowed on your operating system.

------------------------------------------------------------
          Reading file control.in.
------------------------------------------------------------
  XC: Using PBE gradient-corrected functionals.
  Scalar relativistic treatment of kinetic energy: on-site free-atom approximation to ZORA.
  Found k-point grid:         8         8         1
  Output of real space matrices in human-readable format is requested.
  Calculating non-self-consistent second-variational spin-orbit coupling using Pauli approximation
  Calculating density of states with
  | energy interval :-20.000000 10.000000
  | points & broadening : 15001  0.050000

  Plot band    1
  | begin  0.000000  0.000000  0.000000
  | end    0.500000  0.000000  0.000000
  | number of points:   50

  Plot band    2
  | begin  0.500000  0.000000  0.000000
  | end    0.333333  0.333333  0.000000
  | number of points:   50

  Plot band    3
  | begin  0.333333  0.333333  0.000000
  | end    0.000000  0.000000  0.000000
  | number of points:   50

  Reading configuration options for species S                   .
  | Found nuclear charge :  16.0000
  | Found atomic mass :    32.064999999999998      amu
  | Found l_max for Hartree potential  :   6
  | Found cutoff potl. onset [A], width [A], scale factor :    4.00000    2.00000    1.00000
  | Threshold for basis-dependent cutoff potential is   0.100000E-03
  | Found data for basic radial integration grid :    44 points, outermost radius =    7.000 A
  | Found multiplier for basic radial grid :   2
  | Found angular grid specification: user-specified.
  | Specified grid contains     5 separate shells.
  | Check grid settings after all constraints further below.
  | Found free-atom valence shell :  3 s   2.000
  | Found free-atom valence shell :  3 p   4.000
  | Found free-ion valence shell :  3 s   1.000
  | Found free-ion valence shell :  3 p   3.000
  | Found ionic basis function :  3 d , default cutoff radius.
  | Found hydrogenic basis function :  2 p   1.800
  | Found hydrogenic basis function :  4 f   7.000
  | Found ionic basis function :  3 s , default cutoff radius.
  | Found hydrogenic basis function :  4 d   6.200
  | Found hydrogenic basis function :  5 g  10.800
 | Encountered keyword species, ending the description of species S                   .
  Species S                   : Missing cutoff potential type.
  Defaulting to exp(1/x)/(1-x)^2 type cutoff potential.
  Species S : No 'logarithmic' tag. Using default grid for free atom:
  | Default logarithmic grid data [bohr] : 0.1000E-03 0.1000E+03 0.1012E+01
  | Will include ionic basis functions of  2.0-fold positive S                    ion.
  Species S : On-site basis accuracy parameter (for Gram-Schmidt orthonormalisation) not specified.
  Using default value basis_acc =  0.1000000E-03.
  Species S                   : Using default innermost maximum threshold i_radial=  2 for radial functions.
  Species S                   : Default cutoff onset for free atom density etc. : 0.40000000E+01 AA.
  Species S                   : Basic radial grid will be enhanced according to radial_multiplier =   2, to contain    89 grid points.

  Reading configuration options for species Mo                  .
  | Found nuclear charge :  42.0000
  | Found atomic mass :    95.939999999999998      amu
  | Found l_max for Hartree potential  :   6
  | Found cutoff potl. onset [A], width [A], scale factor :    4.00000    2.00000    1.00000
  | Threshold for basis-dependent cutoff potential is   0.100000E-03
  | Found data for basic radial integration grid :    59 points, outermost radius =    7.000 A
  | Found multiplier for basic radial grid :   2
  | Found angular grid specification: user-specified.
  | Specified grid contains     6 separate shells.
  | Check grid settings after all constraints further below.
  | Found free-atom valence shell :  5 s   1.000
  | Found free-atom valence shell :  4 p   6.000
  | Found free-atom valence shell :  4 d   5.000
  | Found free-ion valence shell :  5 s   0.000
  | Found free-ion valence shell :  4 p   6.000
  | Found free-ion valence shell :  4 d   4.000
  | Found hydrogenic basis function :  4 f   8.400
  | Found hydrogenic basis function :  3 d   2.800
  | Found ionic basis function :  5 p , default cutoff radius.
  | Found hydrogenic basis function :  5 g  12.000
  | Found ionic basis function :  5 s , default cutoff radius.
  Species Mo                  : Missing cutoff potential type.
  Defaulting to exp(1/x)/(1-x)^2 type cutoff potential.
  Species Mo: No 'logarithmic' tag. Using default grid for free atom:
  | Default logarithmic grid data [bohr] : 0.1000E-03 0.1000E+03 0.1012E+01
  | Will include ionic basis functions of  2.0-fold positive Mo                   ion.
  Species Mo: On-site basis accuracy parameter (for Gram-Schmidt orthonormalisation) not specified.
  Using default value basis_acc =  0.1000000E-03.
  Species Mo                  : Using default innermost maximum threshold i_radial=  2 for radial functions.
  Species Mo                  : Default cutoff onset for free atom density etc. : 0.40000000E+01 AA.
  Species Mo                  : Basic radial grid will be enhanced according to radial_multiplier =   2, to contain   119 grid points.

  Finished reading input file 'control.in'.

------------------------------------------------------------


------------------------------------------------------------
          Reading geometry description geometry.in.
------------------------------------------------------------
  Found keyword 'hessian_file', indicating that this is the continuation of a structure optimization.
  However, the control.in file does not request the geometry to be optimized.
  Ignoring the request for a file 'hessian.aims' to be present.
  | The smallest distance between any two atoms is         2.40889280 AA.
  | The first atom of this pair is atom number                      1 .
  | The second atom of this pair is atom number                     3 .
  | Wigner-Seitz cell of the first atom image           0     1     0 .
  | (The Wigner-Seitz cell of the second atom is 0 0 0  by definition.)

  Symmetry information by spglib:
  | Precision set to  0.1E-04
  | Number of Operations  : 2
  | Space group           : 6
  | International         : Pm b    P X
  | Schoenflies           : Cs^1
  Input structure read successfully.
  The structure contains        3 atoms,  and a total of         74.000 electrons.

  Input geometry:
  | Unit cell:
  |        3.16296751       -0.00004949        0.00000000
  |       -1.58143232        2.73910373        0.00000000
  |        0.00000000        0.00000000       23.19000000
  | Atomic structure:
  |       Atom                x [A]            y [A]            z [A]
  |    1: Species Mo           -0.00000082        0.00000411       11.59499914
  |    2: Species S             1.58150131        0.91299955       13.16607575
  |    3: Species S             1.58150131        0.91299952       10.02392511

  Lattice parameters for 3D lattice (in Angstroms) :     3.162968    3.162850   23.190000
  Angle(s) between unit vectors (in degrees)       :    90.000000   90.000000  120.001054


  Quantities derived from the lattice vectors (in Angstrom^-1):
  | Reciprocal lattice vector 1:  1.986502  1.146915  0.000000
  | Reciprocal lattice vector 2:  0.000036  2.293904  0.000000
  | Reciprocal lattice vector 3:  0.000000  0.000000  0.270944
  | Unit cell volume                               :   0.200909E+03  Angstrom^3

  Fractional coordinates:
                         L1                L2                L3
       atom_frac         0.00000049        0.00000150        0.49999996  Mo
       atom_frac         0.66666642        0.33333259        0.56774798  S
       atom_frac         0.66666642        0.33333258        0.43225205  S

  Slab Identifier: This is Z-oriented slab and maximum thickness of the vacuum is: 20.048 Angstrom.

  Finished reading input file 'geometry.in'.



  Consistency checks for stacksize environment parameter are next.

  | Maximum stacksize for task 0: unlimited
  | Maximum stacksize for task 1: unlimited
  | Maximum stacksize for task 2: unlimited
  | Maximum stacksize for task 3: unlimited
  | Maximum stacksize for task 4: unlimited
  | Maximum stacksize for task 5: unlimited
  | Maximum stacksize for task 6: unlimited
  | Maximum stacksize for task 7: unlimited
  | Maximum stacksize for task 8: unlimited
  | Maximum stacksize for task 9: unlimited
  | Maximum stacksize for task 10: unlimited
  | Maximum stacksize for task 11: unlimited
  | Maximum stacksize for task 12: unlimited
  | Maximum stacksize for task 13: unlimited
  | Maximum stacksize for task 14: unlimited
  | Maximum stacksize for task 15: unlimited
  | Maximum stacksize for task 16: unlimited
  | Maximum stacksize for task 17: unlimited
  | Maximum stacksize for task 18: unlimited
  | Maximum stacksize for task 19: unlimited
  | Maximum stacksize for task 20: unlimited
  | Maximum stacksize for task 21: unlimited
  | Maximum stacksize for task 22: unlimited
  | Maximum stacksize for task 23: unlimited
  | Maximum stacksize for task 24: unlimited
  | Maximum stacksize for task 25: unlimited
  | Maximum stacksize for task 26: unlimited
  | Maximum stacksize for task 27: unlimited
  | Current stacksize for task 0: unlimited
  | Current stacksize for task 1: unlimited
  | Current stacksize for task 2: unlimited
  | Current stacksize for task 3: unlimited
  | Current stacksize for task 4: unlimited
  | Current stacksize for task 5: unlimited
  | Current stacksize for task 6: unlimited
  | Current stacksize for task 7: unlimited
  | Current stacksize for task 8: unlimited
  | Current stacksize for task 9: unlimited
  | Current stacksize for task 10: unlimited
  | Current stacksize for task 11: unlimited
  | Current stacksize for task 12: unlimited
  | Current stacksize for task 13: unlimited
  | Current stacksize for task 14: unlimited
  | Current stacksize for task 15: unlimited
  | Current stacksize for task 16: unlimited
  | Current stacksize for task 17: unlimited
  | Current stacksize for task 18: unlimited
  | Current stacksize for task 19: unlimited
  | Current stacksize for task 20: unlimited
  | Current stacksize for task 21: unlimited
  | Current stacksize for task 22: unlimited
  | Current stacksize for task 23: unlimited
  | Current stacksize for task 24: unlimited
  | Current stacksize for task 25: unlimited
  | Current stacksize for task 26: unlimited
  | Current stacksize for task 27: unlimited

  Consistency checks for the contents of control.in are next.

  MPI_IN_PLACE appears to work with this MPI implementation.
  | Keeping use_mpi_in_place .true. (see manual).
  Target number of points in a grid batch is not set. Defaulting to  100
  Method for grid partitioning is not set. Defaulting to parallel hash+maxmin partitioning.
  Batch size limit is not set. Defaulting to    200
  By default, will store active basis functions for each batch.
  If in need of memory, prune_basis_once .false. can be used to disable this option.
  communication_type for Hartree potential was not specified.
  Defaulting to calc_hartree .
  Defaulting to Pulay charge density mixer.
  Pulay mixer: Number of relevant iterations not set.
  Defaulting to    8 iterations.
  Pulay mixer: Number of initial linear mixing iterations not set.
  Defaulting to    0 iterations.
  Work space size for distributed Hartree potential not set.
  Defaulting to   0.200000E+03 MB.
  Mixing parameter for charge density mixing has not been set.
  Using default: charge_mix_param =     0.0500.
  The mixing parameter will be adjusted in iteration number     2 of each s.c.f. cycle (i.e., each geometry step).
  Algorithm-dependent basis array size parameters:
  | n_max_pulay                         :        8
  Maximum number of self-consistency iterations not provided.
  Presetting  1000 iterations.
  Presetting      1001 iterations before the initial mixing cycle
  is restarted anyway using the sc_init_iter criterion / keyword.
  Presetting a factor      1.000 between actual scf density residual
  and density convergence criterion sc_accuracy_rho below which sc_init_iter
  takes no effect.
 * No s.c.f. convergence criteria (sc_accuracy_*) were provided in control.in.
 * The run will proceed with a reasonable default guess, but please check whether.
 * the s.c.f. cycles seem to take too much or too little time.
  Calculation of forces was not defined in control.in. No forces will be calculated.
  Geometry relaxation not requested: no relaxation will be performed.
 * Notice: The s.c.f. convergence criterion sc_accuracy_rho was not provided.
 * We used to stop in this case, and ask the user to provide reasonable
 * scf convergence criteria. However, this led some users to employ criteria
 * that led to extremely long run times, e.g., for simple relaxation.
 * We now preset a default value for sc_accuracy_rho if it is not set.
 * You may still wish to check if this setting is too tight or too loose for your needs.
 * Based on n_atoms and forces and force-correction status, FHI-aims chose sc_accuracy_rho =  0.100000E-05 .
  No accuracy limit for integral partition fn. given. Defaulting to  0.1000E-14.
  No threshold value for u(r) in integrations given. Defaulting to  0.1000E-05.
  No occupation type (smearing scheme) given. Defaulting to Gaussian broadening, width =  0.1000E-01 eV.
  The width will be adjusted in iteration number     2 of each s.c.f. cycle (i.e., each geometry step).
  No accuracy for occupation numbers given. Defaulting to  0.1000E-12.
  No threshold value for occupation numbers given. Defaulting to  0.0000E+00.
  No accuracy for fermi level given. Defaulting to  0.1000E-19.
  Maximum # of iterations to find E_F not set. Defaulting to  200.
  Preferred method for the eigenvalue solver ('KS_method') not specified in 'control.in'.
  Defaulting to serial version, LAPACK (via ELSI), since more k-points than CPUs available.
  Threshold for basis singularities not set.
  Default threshold for basis singularities:  0.1000E-04
  partition_type (choice of integration weights) for integrals was not specified.
  | Using a version of the partition function of Stratmann and coworkers ('stratmann_sparse').
  | At each grid point, the set of atoms used to build the partition table is smoothly restricted to
  | only those atoms whose free-atom density would be non-zero at that grid point.
  Partitioning for Hartree potential was not defined. Using partition_type for integrals.
  | Adjusted default value of keyword multip_moments_threshold to:       0.10000000E-11
  | This value may affect high angular momentum components of the Hartree potential in periodic systems.
  Using 2025 definition of centers list for evaluation of the Stratmann partition function.
  Spin handling was not defined in control.in. Defaulting to unpolarized case.
  Angular momentum expansion for Kerker preconditioner not set explicitly.
  | Using default value of   0
  No explicit requirement for turning off preconditioner.
  | By default, it will be turned off when the charge convergence reaches
  | sc_accuracy_rho  =   0.100000E-05
  No special mixing parameter while Kerker preconditioner is on.
  Using default: charge_mix_param =     0.0500.
  No q(lm)/r^(l+1) cutoff set for long-range Hartree potential.
  | Using default value of  0.100000E-09 .
  | Verify using the multipole_threshold keyword.
  Defaulting to new monopole extrapolation.
  Density update method: automatic selection selected.
  Using density matrix based charge density update.
  Using density matrix based charge density update.
  Using packed matrix style: index .
  Threshold of packed matrixes:  0.000000E+00
  Defaulting to use time-reversal symmetry for k-point grid.
  Charge integration errors on the 3D integration grid will be compensated
  by explicit normalization and distribution of residual charges.
  Use the "compensate_multipole_errors" flag to change this behaviour.
  You have selected one (or more) of: output band; output band_mulliken; output polarization
  output Z2_invariant; and use_spin_texture_scf in your control.in
  Therefore COMPLEX eigenvectors will be used in the calculation.
  Set 'collect_eigenvectors' to be '.true.' for all serial calculations. This is mandatory.
  Set 'collect_eigenvectors' to be '.true.' for KS_method lapack_fast and serial.
  Found potential conflicts with setting 'use_local_index' for this calculation. Will not set it.

  Consistency checks for the contents of geometry.in are next.


  Range separation radius for Ewald summation (hartree_convergence_parameter):      5.00000000 bohr.
  Number of empty states per atom not set in control.in - providing a guess from actual geometry.
  | Total number of empty states used during s.c.f. cycle:       12
  If you use a very high smearing, use empty_states (per atom!) in control.in to increase this value.
  * Since a DOS, bandstructure or SOC calculation was requested, the number of empty states requested was INCREASED.
  | Number of empty states (old):      23.0000000
  | Number of empty states (new):      53.0000000

  Structure-dependent array size parameters: 
  | Maximum number of distinct radial functions  :       26
  | Maximum number of basis functions            :      127
  | Number of Kohn-Sham states (occupied + empty):       64
------------------------------------------------------------

  Checking k-grid inconsistencies now:
  | k-point density for reciprocal lattice vector 1 is    3.49 nkpts / Angstrom^-1
  | k-point density for reciprocal lattice vector 2 is    3.49 nkpts / Angstrom^-1
  | k-point density for reciprocal vacuum lattice vector 3 is    3.69 nkpts / Angstrom^-1

  | Ratio of k-point densities for reciprocal lattice vectors 1 vs 2 is    1.00

  * The specified k_grid leads to a nearly homogenous k-grid density in non-vacuum directions,
  * and seems sensible.

  | Checks passed.
  After read_input_data [GB]:    512.81

  Performing system and environment tests:
  *** Environment variable OMP_NUM_THREADS is not set
  *** For performance reasons you might want to set it to 1
  | Checking for ScaLAPACK...
  | Testing pdtran()...
  | All pdtran() tests passed.
  | Testing CPU compatibility for run-time vs. build-time.
  | Reading /proc/cpuinfo for CPU information ...
  | Built for  : AMD Ryzen Threadripper PRO 7975WX 32-Cores
  | Running on : AMD Ryzen Threadripper PRO 7975WX 32-Cores
  | Runtime CPU compatibility verified.
  
  After prepare_system [GB]:    512.77

------------------------------------------------------------
          Preparing all fixed parts of the calculation.
------------------------------------------------------------
  Determining machine precision:
     2.2250738585072014E-308
  Setting up grids for atomic and cluster calculations.

  Creating wave function, potential, and density for free atoms.
  Runtime choices for atomic solver:
  | atomic solver xc        : PBE
  | compute density gradient: 1
  | compute kinetic density : F

  Species: S

  List of occupied orbitals and eigenvalues:
    n    l              occ      energy [Ha]    energy [eV]
    1    0           2.0000       -88.680731     -2413.1255
    2    0           2.0000        -7.781719      -211.7513
    3    0           2.0000        -0.633662       -17.2428
    2    1           6.0000        -5.751976      -156.5192
    3    1           4.0000        -0.257086        -6.9957


  Species: Mo

  List of occupied orbitals and eigenvalues:
    n    l              occ      energy [Ha]    energy [eV]
    1    0           2.0000      -745.344654    -20281.8600
    2    0           2.0000      -103.288246     -2810.6162
    3    0           2.0000       -17.516687      -476.6533
    4    0           2.0000        -2.358559       -64.1796
    5    0           1.0000        -0.145159        -3.9500
    2    1           6.0000       -92.308627     -2511.8455
    3    1           6.0000       -13.936005      -379.2180
    4    1           6.0000        -1.408138       -38.3174
    3    2          10.0000        -8.119011      -220.9295
    4    2           5.0000        -0.132984        -3.6187


  Adding cutoff potential to free-atom effective potential.
  Creating fixed part of basis set: Ionic, confined, hydrogenic.

  S                    ion:
  Runtime choices for ionic solver:
  | ionic solver xc        : PBE

  List of free ionic orbitals and eigenvalues:
    n    l      energy [Ha]    energy [eV]
    1    0       -89.703778     -2440.9640
    2    0        -8.775428      -238.7916
    3    0        -1.470343       -40.0101
    2    1        -6.747660      -183.6132
    3    1        -1.048627       -28.5346


  List of ionic basis orbitals and eigenvalues:
    n    l      energy [Ha]    energy [eV]    outer radius [A]
    3    2        -0.495605       -13.4861       5.386362
    3    0        -1.470336       -40.0099       3.967934


  S                    hydrogenic:

  List of hydrogenic basis orbitals: 
    n    l      effective z      eigenvalue [eV]  inner max. [A]     outer max. [A]     outer radius [A]   
    2    1         1.800000       -11.0118           1.168531           1.168531           5.452614
    4    3         7.000000       -41.6672           1.212182           1.212182           5.066981
    4    2         6.200000       -32.6848           0.582121           1.814567           5.386362
    5    4        10.800000       -63.4785           1.227092           1.227092           4.766538


  Mo                   ion:
  Runtime choices for ionic solver:
  | ionic solver xc        : PBE

  List of free ionic orbitals and eigenvalues:
    n    l      energy [Ha]    energy [eV]
    1    0      -746.048685    -20301.0176
    2    0      -103.980912     -2829.4646
    3    0       -18.206601      -495.4268
    4    0        -3.040545       -82.7374
    2    1       -93.001013     -2530.6863
    3    1       -14.625827      -397.9890
    4    1        -2.084855       -56.7318
    3    2        -8.808854      -239.7011
    4    2        -0.765435       -20.8285


  List of ionic basis orbitals and eigenvalues:
    n    l      energy [Ha]    energy [eV]    outer radius [A]
    5    1        -0.465587       -12.6693       5.456393
    5    0        -0.650331       -17.6964       5.390095


  Mo                   hydrogenic:

  List of hydrogenic basis orbitals: 
    n    l      effective z      eigenvalue [eV]  inner max. [A]     outer max. [A]     outer radius [A]   
    4    3         8.400000       -60.0010           1.009788           1.009788           4.487018
    3    2         2.800000       -11.8048           1.687401           1.687401           5.456393
    5    4        12.000000       -78.3687           1.100005           1.100005           4.432498

  Creating atomic-like basis functions for current effective potential.

  Species S                   :

  List of atomic basis orbitals and eigenvalues:
    n    l      energy [Ha]    energy [eV]    outer radius [A]
    1    0       -88.680731     -2413.1255       0.682391
    2    0        -7.781719      -211.7513       2.289014
    3    0        -0.633662       -17.2428       5.256262
    2    1        -5.751976      -156.5192       2.555240
    3    1        -0.257086        -6.9957       5.386362


  Species Mo                  :

  List of atomic basis orbitals and eigenvalues:
    n    l      energy [Ha]    energy [eV]    outer radius [A]
    1    0      -745.344654    -20281.8600       0.247552
    2    0      -103.288246     -2810.6162       0.682864
    3    0       -17.516687      -476.6533       1.626637
    4    0        -2.358559       -64.1796       4.220963
    5    0        -0.145159        -3.9500       5.456393
    2    1       -92.308627     -2511.8455       0.699766
    3    1       -13.936005      -379.2180       1.793761
    4    1        -1.408138       -38.3174       4.828511
    3    2        -8.119011      -220.9295       2.181285
    4    2        -0.132984        -3.6187       5.390095

  Assembling full basis from fixed parts.
  | Species S :   atomic orbital   1 s accepted.
  | Species S :   atomic orbital   2 s accepted.
  | Species S :    ionic orbital   3 s accepted.
  | Species S :   atomic orbital   3 s accepted.
  | Species S :   atomic orbital   2 p accepted.
  | Species S :   atomic orbital   3 p accepted.
  | Species S :    hydro orbital   2 p accepted.
  | Species S :    ionic orbital   3 d accepted.
  | Species S :    hydro orbital   4 d accepted.
  | Species S :    hydro orbital   4 f accepted.
  | Species S :    hydro orbital   5 g accepted.
  | Species Mo :   atomic orbital   1 s accepted.
  | Species Mo :   atomic orbital   2 s accepted.
  | Species Mo :   atomic orbital   3 s accepted.
  | Species Mo :   atomic orbital   4 s accepted.
  | Species Mo :    ionic orbital   5 s accepted.
  | Species Mo :   atomic orbital   5 s accepted.
  | Species Mo :   atomic orbital   2 p accepted.
  | Species Mo :   atomic orbital   3 p accepted.
  | Species Mo :   atomic orbital   4 p accepted.
  | Species Mo :    ionic orbital   5 p accepted.
  | Species Mo :   atomic orbital   3 d accepted.
  | Species Mo :   atomic orbital   4 d accepted.
  | Species Mo :    hydro orbital   3 d accepted.
  | Species Mo :    hydro orbital   4 f accepted.
  | Species Mo :    hydro orbital   5 g accepted.

  Basis size parameters after reduction:
  | Total number of radial functions:       26
  | Total number of basis functions :      127

  Per-task memory consumption for arrays in subroutine allocate_ext:
  |           9.562516MB.
  Testing on-site integration grid accuracy.
  |  Species  Function  <phi|h_atom|phi> (log., in eV)  <phi|h_atom|phi> (rad., in eV)
           1        1              -2413.1254568977              -2413.1254096663
           1        2               -211.7513411281               -211.7513404762
           1        3                -16.9725280787                -16.9725279206
           1        4                  7.6024436204                  7.6024549059
           1        5               -156.5192206929               -156.5192205451
           1        6                 -6.9959757887                 -6.9959777655
           1        7                  6.8896462808                  6.8895564741
           1        8                  6.0214250550                  6.0214220200
           1        9                 19.6206468977                 19.6206494558
           1       10                 24.7008710786                 24.7008710738
           1       11                 47.5292252001                 47.5292260486
           2       12             -20281.8599610543             -20281.8584300616
           2       13              -2810.6161812280              -2810.6161551921
           2       14               -476.6533163555               -476.6533136395
           2       15                -64.1796433667                -64.1796426456
           2       16                 -3.3691762756                 -3.3691802887
           2       17                  4.4704608512                  4.4699102345
           2       18              -2511.8455406047              -2511.8455385741
           2       19               -379.2179896350               -379.2179882338
           2       20                -38.3173891619                -38.3173886619
           2       21                  0.2493245095                  0.2492931069
           2       22               -220.9295301098               -220.9295297081
           2       23                 -3.6195697699                 -3.6195754704
           2       24                  7.1428000922                  7.1426882355
           2       25                 23.3975871087                 23.3975871819
           2       26                 50.2449608881                 50.2449608586

  Preparing densities etc. for the partition functions (integrals / Hartree potential).

  Preparations completed.
  max(cpu_time)          :      0.209 s.
  Wall clock time (cpu1) :      0.209 s.
------------------------------------------------------------
  After prepare_scf [GB]:    511.16

  Initializing index lists of integration centers etc. from given atomic structure:
  Mapping all atomic coordinates to central unit cell.

  Initializing the k-points
  Using symmetry for reducing the k-points
  | k-points reduced from:       64 to       34
  | Number of k-points                             :        34
  The eigenvectors in the calculations are COMPLEX.
  | K-points in task   0:         1
  | K-points in task   1:         2
  | K-points in task   2:         2
  | K-points in task   3:         2
  | K-points in task   4:         2
  | K-points in task   5:         2
  | K-points in task   6:         2
  | K-points in task   7:         1
  | K-points in task   8:         1
  | K-points in task   9:         1
  | K-points in task  10:         1
  | K-points in task  11:         1
  | K-points in task  12:         1
  | K-points in task  13:         1
  | K-points in task  14:         1
  | K-points in task  15:         1
  | K-points in task  16:         1
  | K-points in task  17:         1
  | K-points in task  18:         1
  | K-points in task  19:         1
  | K-points in task  20:         1
  | K-points in task  21:         1
  | K-points in task  22:         1
  | K-points in task  23:         1
  | K-points in task  24:         1
  | K-points in task  25:         1
  | K-points in task  26:         1
  | K-points in task  27:         1
  | Number of basis functions in the Hamiltonian integrals       :      4246
  | Number of basis functions in a single unit cell              :       127
  | Number of centers in hartree potential                       :       731
  | Number of centers in hartree multipole                       :       355
  | Number of centers in electron density summation              :       278
  | Number of centers in basis integrals                         :       311
  | Number of centers in integrals                               :       142
  | Number of centers in hamiltonian                             :       278
  | Number of centers in partition table from touching 0-cell    :       230
  | Number of centers in partition table total                   :       446
  | Consuming         82 KiB for k_phase.
  | Number of super-cells (origin) [n_cells]                     :        1445
  | Number of super-cells (after PM_index) [n_cells]             :         156
  | Number of super-cells in hamiltonian [n_cells_in_hamiltonian]:         156
  | Size of matrix packed + index [n_hamiltonian_matrix_size]    :      249580
  After initialize_bc_dependent_lists [GB]:    511.16

------------------------------------------------------------
          Begin self-consistency loop: Initialization.

          Date     :  20260625, Time     :  174158.139
------------------------------------------------------------
  Available memory per node after initialize_hartree_non_periodic_ewald [GB]:    511.16
  | Estimated reciprocal-space cutoff momentum G_max:         1.90186217 bohr^-1 .
  | Reciprocal lattice points for long-range Hartree potential:     152
  Available memory per node after initialize_recip_hartree_potential [GB]:    511.16
  Available memory per node after initialize_scalapack [GB]:    511.16
  Available memory per node after aims_elsi_init_scf [GB]:    511.16
  Available memory per node after initialize_fixed_grids [GB]:    511.16
  Partitioning the integration grid into batches with parallel hashing+maxmin method.
  | Number of batches:      864
  | Maximal batch size:     177
  | Minimal batch size:       2
  | Average batch size:      85.646
  | Standard deviation of batch sizes:      23.030

  Integration load balanced across    28 MPI tasks.
  Work distribution over tasks is as follows:
  Task     0 has       2621 integration points.
  Task     1 has       2646 integration points.
  Task     2 has       2613 integration points.
  Task     3 has       2614 integration points.
  Task     4 has       2665 integration points.
  Task     5 has       2609 integration points.
  Task     6 has       2686 integration points.
  Task     7 has       2681 integration points.
  Task     8 has       2677 integration points.
  Task     9 has       2671 integration points.
  Task    10 has       2655 integration points.
  Task    11 has       2642 integration points.
  Task    12 has       2607 integration points.
  Task    13 has       2650 integration points.
  Task    14 has       2621 integration points.
  Task    15 has       2613 integration points.
  Task    16 has       2669 integration points.
  Task    17 has       2675 integration points.
  Task    18 has       2646 integration points.
  Task    19 has       2646 integration points.
  Task    20 has       2654 integration points.
  Task    21 has       2680 integration points.
  Task    22 has       2650 integration points.
  Task    23 has       2616 integration points.
  Task    24 has       2616 integration points.
  Task    25 has       2661 integration points.
  Task    26 has       2609 integration points.
  Task    27 has       2605 integration points.
  Available memory per node after partition_grid [GB]:    511.15
  Initializing partition tables, free-atom densities, potentials, etc. across the integration grid (initialize_grid_storage).
  | initialize_grid_storage: Actual outermost partition radius vs. multipole_radius_free
  | (-- VB: in principle, multipole_radius_free should be larger, hence this output)
  | Species        1: Confinement radius =              6.000000000000000 AA, multipole_radius_free =              6.012827091137924 AA.
  | Species        1: outer_partition_radius set to              6.012827091137924 AA .
  | Species        2: Confinement radius =              6.000000000000000 AA, multipole_radius_free =              6.016994434057369 AA.
  | Species        2: outer_partition_radius set to              6.016994434057369 AA .
  | The sparse table of interatomic distances needs        866.70 kbyte instead of      1591.33 kbyte of memory.
  | Net number of integration points:    73998
  | of which are non-zero points    :    60018
  | Numerical average free-atom electrostatic potential    :     -4.83276688 eV
  Available memory per node after initialize_grid_storage_p1 [GB]:    511.15
  Renormalizing the initial density to the exact electron count on the 3D integration grid.
  | Initial density: Formal number of electrons (from input files) :      74.0000000000
  | Integrated number of electrons on 3D grid     :      73.9999314482
  | Charge integration error                      :      -0.0000685518
  | Normalization factor for density and gradient :       1.0000009264
  Renormalizing the free-atom superposition density to the exact electron count on the 3D integration grid.
  | Formal number of electrons (from input files) :      74.0000000000
  | Integrated number of electrons on 3D grid     :      73.9999314482
  | Charge integration error                      :      -0.0000685518
  | Normalization factor for density and gradient :       1.0000009264
  Obtaining max. number of non-zero basis functions in each batch (get_n_compute_maxes).
  | Maximal number of non-zero basis functions:     1142 in task     0
  | Maximal number of non-zero basis functions:     1166 in task     1
  | Maximal number of non-zero basis functions:     1203 in task     2
  | Maximal number of non-zero basis functions:     1153 in task     3
  | Maximal number of non-zero basis functions:     1230 in task     4
  | Maximal number of non-zero basis functions:     1164 in task     5
  | Maximal number of non-zero basis functions:     1163 in task     6
  | Maximal number of non-zero basis functions:     1114 in task     7
  | Maximal number of non-zero basis functions:     1194 in task     8
  | Maximal number of non-zero basis functions:     1152 in task     9
  | Maximal number of non-zero basis functions:     1193 in task    10
  | Maximal number of non-zero basis functions:     1166 in task    11
  | Maximal number of non-zero basis functions:     1183 in task    12
  | Maximal number of non-zero basis functions:     1210 in task    13
  | Maximal number of non-zero basis functions:     1143 in task    14
  | Maximal number of non-zero basis functions:     1179 in task    15
  | Maximal number of non-zero basis functions:     1163 in task    16
  | Maximal number of non-zero basis functions:     1177 in task    17
  | Maximal number of non-zero basis functions:     1154 in task    18
  | Maximal number of non-zero basis functions:     1169 in task    19
  | Maximal number of non-zero basis functions:     1189 in task    20
  | Maximal number of non-zero basis functions:     1179 in task    21
  | Maximal number of non-zero basis functions:     1204 in task    22
  | Maximal number of non-zero basis functions:     1137 in task    23
  | Maximal number of non-zero basis functions:     1129 in task    24
  | Maximal number of non-zero basis functions:     1169 in task    25
  | Maximal number of non-zero basis functions:     1128 in task    26
  | Maximal number of non-zero basis functions:     1123 in task    27
  Available memory per node after get_n_compute_maxes_p1 [GB]:    511.15
  Allocating        0.124 MB for KS_eigenvector_complex
  Available memory per node after allocate_matrices [GB]:    511.15
  Available memory per node after init_comm_sparse_local_matrix_scalapack [GB]:    511.15
  Integrating Hamiltonian matrix: batch-based integration.
  Time summed over all CPUs for integration: real work        6.649 s, elapsed        7.008 s
  Available memory per node after integrate hamiltonian matrix [GB]:    511.10
  Integrating overlap matrix.
  Time summed over all CPUs for integration: real work        5.107 s, elapsed        5.414 s
  Available memory per node after integrate ovlp matrix [GB]:    511.05
  Available memory per node after save_overlap_scalapack [GB]:    511.05

  Updating Kohn-Sham eigenvalues and eigenvectors using ELSI and the (modified) LAPACK eigensolver.
  Singularity check in k-point 28, task 0 (analysis for other k-points/tasks may follow below):
  Overlap matrix is not singular
  | Lowest and highest eigenvalues :  0.3309E-03,  0.7094E+01
  Finished singularity check of overlap matrix
  | Time :     0.002 s
  Starting LAPACK eigensolver
  Finished Cholesky decomposition
  | Time :     0.000 s
  Finished transformation to standard eigenproblem
  | Time :     0.001 s
  Finished solving standard eigenproblem
  | Time :     0.002 s
  Finished back-transformation of eigenvectors
  | Time :     0.000 s

  Obtaining occupation numbers and electronic chemical potential using ELSI.
  | Note that, for insulating systems, the printed 'chemical potential' value is not uniquely defined.
  | It can be anywhere in the energy gap, as long as it correctly separates occupied and unoccupied states.
  | In systems with a gap, the physically relevant chemical potential is the VBM or HOMO.

  | Chemical potential (Fermi level):    -4.99296547 eV
  Available memory per node after advance_KS_solution [GB]:    511.05
  Writing Kohn-Sham eigenvalues.
  K-point:       1 at    0.000000    0.000000    0.000000 (in units of recip. lattice)

  State    Occupation    Eigenvalue [Ha]    Eigenvalue [eV]
      1       2.00000        -745.362645       -20282.34952
      2       2.00000        -103.306766        -2811.12014
      3       2.00000         -92.327134        -2512.34914
      4       2.00000         -92.327134        -2512.34914
      5       2.00000         -92.327119        -2512.34874
      6       2.00000         -88.712935        -2414.00178
      7       2.00000         -88.712935        -2414.00177
      8       2.00000         -17.536898         -477.20329
      9       2.00000         -13.956328         -379.77101
     10       2.00000         -13.956328         -379.77100
     11       2.00000         -13.956187         -379.76718
     12       2.00000          -8.139292         -221.48140
     13       2.00000          -8.139292         -221.48140
     14       2.00000          -8.139217         -221.47936
     15       2.00000          -8.139217         -221.47935
     16       2.00000          -8.139143         -221.47735
     17       2.00000          -7.816855         -212.70744
     18       2.00000          -7.816855         -212.70744
     19       2.00000          -5.787076         -157.47435
     20       2.00000          -5.787076         -157.47435
     21       2.00000          -5.786617         -157.46186
     22       2.00000          -5.786617         -157.46186
     23       2.00000          -5.786617         -157.46186
     24       2.00000          -5.786617         -157.46186
     25       2.00000          -2.395256          -65.17823
     26       2.00000          -1.455689          -39.61132
     27       2.00000          -1.444810          -39.31527
     28       2.00000          -1.444809          -39.31526
     29       2.00000          -0.780445          -21.23699
     30       2.00000          -0.731142          -19.89539
     31       2.00000          -0.453473          -12.33962
     32       2.00000          -0.326975           -8.89745
     33       2.00000          -0.326956           -8.89694
     34       2.00000          -0.323721           -8.80888
     35       2.00000          -0.289695           -7.88299
     36       2.00000          -0.289687           -7.88278
     37       2.00000          -0.219091           -5.96176
     38       0.00000          -0.125326           -3.41028
     39       0.00000          -0.125311           -3.40988
     40       0.00000          -0.121694           -3.31145
     41       0.00000          -0.121678           -3.31102
     42       0.00000          -0.015726           -0.42793
     43       0.00000           0.068180            1.85527
     44       0.00000           0.070032            1.90568
     45       0.00000           0.097183            2.64449
     46       0.00000           0.149385            4.06499
     47       0.00000           0.149417            4.06584
     48       0.00000           0.223380            6.07848
     49       0.00000           0.223409            6.07927
     50       0.00000           0.252637            6.87460
     51       0.00000           0.346508            9.42895
     52       0.00000           0.346524            9.42940
     53       0.00000           0.357465            9.72711
     54       0.00000           0.357476            9.72742
     55       0.00000           0.416984           11.34672
     56       0.00000           0.428472           11.65930
     57       0.00000           0.542346           14.75800
     58       0.00000           0.582622           15.85395
     59       0.00000           0.678779           18.47051
     60       0.00000           0.678817           18.47156
     61       0.00000           0.705244           19.19065
     62       0.00000           0.850053           23.13111
     63       0.00000           0.850083           23.13192
     64       0.00000           0.857310           23.32860

  What follows are estimated values for band gap, HOMO, LUMO, etc.
  | They are estimated on a discrete k-point grid and not necessarily exact.
  | For converged numbers, create a DOS and/or band structure plot on a denser k-grid.

  Highest occupied state (VBM) at     -5.96176484 eV (relative to internal zero)
  | Occupation number:      2.00000000
  | K-point:       1 at    0.000000    0.000000    0.000000 (in units of recip. lattice)

  Lowest unoccupied state (CBM) at    -4.02416610 eV (relative to internal zero)
  | Occupation number:      0.00000000
  | K-point:      31 at    0.750000    0.125000    0.000000 (in units of recip. lattice)

  The gap value is above 0.2 eV. Unless you are using a very sparse k-point grid,
  this system is most likely an insulator or a semiconductor.
  ESTIMATED overall HOMO-LUMO gap:      1.93759874 eV between HOMO at k-point 1 and LUMO at k-point 31
  | This appears to be an indirect band gap.
  | Smallest direct gap :      2.36563709 eV for k_point 20 at    0.375000    0.250000    0.000000 (in units of recip. lattice)
  Calculating total energy contributions from superposition of free atom densities.

  Total energy components:
  | Sum of eigenvalues            :       -2928.33587668 Ha      -79684.07348540 eV
  | XC energy correction          :        -175.67231012 Ha       -4780.28677668 eV
  | XC potential correction       :         228.41320120 Ha        6215.43944273 eV
  | Free-atom electrostatic energy:       -2011.99130714 Ha      -54749.06906932 eV
  | Hartree energy correction     :          -0.00000000 Ha          -0.00000000 eV
  | Entropy correction            :          -0.00000000 Ha          -0.00000000 eV
  | ---------------------------
  | Total energy                  :       -4887.58629274 Ha     -132997.98988868 eV
  | Total energy, T -> 0          :       -4887.58629274 Ha     -132997.98988868 eV  <-- do not rely on this value for anything but (periodic) metals
  | Electronic free energy        :       -4887.58629274 Ha     -132997.98988868 eV

  Derived energy quantities:
  | Kinetic energy                :        5018.36028328 Ha      136556.53122783 eV
  | Electrostatic energy          :       -9730.27426590 Ha     -264774.23433983 eV
  | Energy correction for multipole
  | error in Hartree potential    :           0.00000000 Ha           0.00000000 eV
  | Sum of eigenvalues per atom                           :      -26561.35782847 eV
  | Total energy (T->0) per atom                          :      -44332.66329623 eV  <-- do not rely on this value for anything but (periodic) metals
  | Electronic free energy per atom                       :      -44332.66329623 eV
  Initialize hartree_potential_storage
  Max. number of atoms included in rho_multipole:            3

  End scf initialization - timings             :  max(cpu_time)    wall_clock(cpu1)
  | Time for scf. initialization                :        1.167 s           0.620 s
  | Boundary condition initialization           :        0.019 s           0.019 s
  | Integration                                 :        0.907 s           0.460 s
  | Solution of K.-S. eqns.                     :        0.022 s           0.011 s
  | Grid partitioning                           :        0.083 s           0.067 s
  | Preloading free-atom quantities on grid     :        0.135 s           0.072 s
  | Free-atom superposition energy              :        0.014 s           0.007 s
  | Total energy evaluation                     :        0.001 s           0.001 s

  Partial memory accounting:
  | Current value for overall tracked memory usage:
  |   Minimum:        4.918 MB (on task  0)
  |   Maximum:        5.042 MB (on task  1)
  |   Average:        4.945 MB
  | Peak value for overall tracked memory usage:
  |   Minimum:       18.925 MB (on task  7 after allocating wave)
  |   Maximum:       21.596 MB (on task  4 after allocating wave)
  |   Average:       20.096 MB
  | Largest tracked array allocation so far:
  |   Minimum:        9.468 MB (hamiltonian_shell on task  7)
  |   Maximum:       11.543 MB (hamiltonian_shell on task  4)
  |   Average:       10.396 MB
  Note:  These values currently only include a subset of arrays which are explicitly tracked.
  The "true" memory usage will be greater.
------------------------------------------------------------
  Available memory after initialize_scf [GB]:    511.05
  Available memory after allocating mixing [GB]:    511.05
  Evaluating new KS density using the density matrix
  Evaluating density matrix
  Time summed over all CPUs for getting density from density matrix: real work       12.764 s, elapsed       13.350 s
  Integration grid: deviation in total charge (<rho> - N_e) =   2.842171E-14

  Time for density update prior                :  max(cpu_time)    wall_clock(cpu1)
  | self-consistency iterative process          :        0.961 s           0.480 s
  Available memory before start of SCF loop [GB]:    511.08

------------------------------------------------------------
          Begin self-consistency iteration #    1

  Date     :  20260625, Time     :  174159.240
------------------------------------------------------------
  Pulay mixing of updated and previous charge densities.
  Available memory per node after mixing [GB]:    511.07
  Renormalizing the density to the exact electron count on the 3D integration grid.
  | Formal number of electrons (from input files) :      74.0000000000
  | Integrated number of electrons on 3D grid     :      73.9998480464
  | Charge integration error                      :      -0.0001519536
  | Normalization factor for density and gradient :       1.0000020534

  Evaluating partitioned Hartree potential by multipole expansion.
  | Original multipole sum: apparent total charge =   0.383402E-13
  | Sum of charges compensated after spline to logarithmic grids =   0.226797E-07
  | Analytical far-field extrapolation by fixed multipoles:
  | Hartree multipole sum: apparent total charge =   0.382987E-13
  Summing up the Hartree potential.
  Time summed over all CPUs for potential: real work        0.020 s, elapsed        0.028 s
  | RMS charge density error from multipole expansion :   0.253833E-03
  | Average real-space part of the electrostatic potential :     -0.00066024 eV

  Integrating Hamiltonian matrix: batch-based integration.
  Time summed over all CPUs for integration: real work        6.665 s, elapsed        7.008 s

  Updating Kohn-Sham eigenvalues and eigenvectors using ELSI and the (modified) LAPACK eigensolver.
  Starting LAPACK eigensolver
  Finished Cholesky decomposition
  | Time :     0.000 s
  Finished transformation to standard eigenproblem
  | Time :     0.001 s
  Finished solving standard eigenproblem
  | Time :     0.002 s
  Finished back-transformation of eigenvectors
  | Time :     0.000 s

  Obtaining occupation numbers and electronic chemical potential using ELSI.
  | Note that, for insulating systems, the printed 'chemical potential' value is not uniquely defined.
  | It can be anywhere in the energy gap, as long as it correctly separates occupied and unoccupied states.
  | In systems with a gap, the physically relevant chemical potential is the VBM or HOMO.

  | Chemical potential (Fermi level):    -5.05626620 eV
  Writing Kohn-Sham eigenvalues.
  K-point:       1 at    0.000000    0.000000    0.000000 (in units of recip. lattice)

  State    Occupation    Eigenvalue [Ha]    Eigenvalue [eV]
      1       2.00000        -745.380449       -20282.83401
      2       2.00000        -103.324480        -2811.60214
      3       2.00000         -92.344955        -2512.83408
      4       2.00000         -92.344955        -2512.83408
      5       2.00000         -92.344948        -2512.83389
      6       2.00000         -88.705293        -2413.79385
      7       2.00000         -88.705293        -2413.79384
      8       2.00000         -17.551881         -477.61099
      9       2.00000         -13.971302         -380.17847
     10       2.00000         -13.971302         -380.17847
     11       2.00000         -13.971192         -380.17549
     12       2.00000          -8.154482         -221.89475
     13       2.00000          -8.154482         -221.89475
     14       2.00000          -8.154447         -221.89379
     15       2.00000          -8.154447         -221.89379
     16       2.00000          -8.154343         -221.89097
     17       2.00000          -7.810836         -212.54366
     18       2.00000          -7.810836         -212.54366
     19       2.00000          -5.780848         -157.30488
     20       2.00000          -5.780848         -157.30487
     21       2.00000          -5.780492         -157.29519
     22       2.00000          -5.780492         -157.29519
     23       2.00000          -5.780492         -157.29518
     24       2.00000          -5.780492         -157.29518
     25       2.00000          -2.405426          -65.45496
     26       2.00000          -1.464597          -39.85371
     27       2.00000          -1.453995          -39.56523
     28       2.00000          -1.453995          -39.56521
     29       2.00000          -0.777975          -21.16976
     30       2.00000          -0.728550          -19.82485
     31       2.00000          -0.452791          -12.32108
     32       2.00000          -0.327808           -8.92012
     33       2.00000          -0.327789           -8.91960
     34       2.00000          -0.321413           -8.74608
     35       2.00000          -0.289657           -7.88197
     36       2.00000          -0.289649           -7.88176
     37       2.00000          -0.221845           -6.03671
     38       0.00000          -0.127162           -3.46025
     39       0.00000          -0.127147           -3.45985
     40       0.00000          -0.122663           -3.33783
     41       0.00000          -0.122647           -3.33740
     42       0.00000          -0.015036           -0.40915
     43       0.00000           0.068328            1.85929
     44       0.00000           0.071706            1.95121
     45       0.00000           0.098374            2.67688
     46       0.00000           0.150660            4.09967
     47       0.00000           0.150692            4.10053
     48       0.00000           0.224594            6.11152
     49       0.00000           0.224624            6.11233
     50       0.00000           0.252577            6.87296
     51       0.00000           0.347469            9.45512
     52       0.00000           0.347486            9.45557
     53       0.00000           0.358199            9.74710
     54       0.00000           0.358211            9.74742
     55       0.00000           0.417889           11.37133
     56       0.00000           0.429114           11.67679
     57       0.00000           0.542574           14.76418
     58       0.00000           0.582741           15.85719
     59       0.00000           0.677202           18.42760
     60       0.00000           0.677240           18.42865
     61       0.00000           0.707779           19.25965
     62       0.00000           0.848424           23.08680
     63       0.00000           0.848455           23.08764
     64       0.00000           0.857061           23.32181

  What follows are estimated values for band gap, HOMO, LUMO, etc.
  | They are estimated on a discrete k-point grid and not necessarily exact.
  | For converged numbers, create a DOS and/or band structure plot on a denser k-grid.

  Highest occupied state (VBM) at     -6.03670729 eV (relative to internal zero)
  | Occupation number:      2.00000000
  | K-point:       1 at    0.000000    0.000000    0.000000 (in units of recip. lattice)

  Lowest unoccupied state (CBM) at    -4.07582510 eV (relative to internal zero)
  | Occupation number:      0.00000000
  | K-point:      31 at    0.750000    0.125000    0.000000 (in units of recip. lattice)

  The gap value is above 0.2 eV. Unless you are using a very sparse k-point grid,
  this system is most likely an insulator or a semiconductor.
  ESTIMATED overall HOMO-LUMO gap:      1.96088219 eV between HOMO at k-point 1 and LUMO at k-point 31
  | This appears to be an indirect band gap.
  | Smallest direct gap :      2.32484587 eV for k_point 20 at    0.375000    0.250000    0.000000 (in units of recip. lattice)

  Total energy components:
  | Sum of eigenvalues            :       -2928.71434667 Ha      -79694.37217800 eV
  | XC energy correction          :        -175.66217060 Ha       -4780.01086618 eV
  | XC potential correction       :         228.39982832 Ha        6215.07554805 eV
  | Free-atom electrostatic energy:       -2011.99130714 Ha      -54749.06906932 eV
  | Hartree energy correction     :           0.39347983 Ha          10.70713108 eV
  | Entropy correction            :          -0.00000000 Ha          -0.00000000 eV
  | ---------------------------
  | Total energy                  :       -4887.57451626 Ha     -132997.66943437 eV
  | Total energy, T -> 0          :       -4887.57451626 Ha     -132997.66943437 eV  <-- do not rely on this value for anything but (periodic) metals
  | Electronic free energy        :       -4887.57451626 Ha     -132997.66943437 eV

  Derived energy quantities:
  | Kinetic energy                :        5018.26330272 Ha      136553.89225257 eV
  | Electrostatic energy          :       -9730.17564839 Ha     -264771.55082076 eV
  | Energy correction for multipole
  | error in Hartree potential    :          -0.00004465 Ha          -0.00121499 eV
  | Sum of eigenvalues per atom                           :      -26564.79072600 eV
  | Total energy (T->0) per atom                          :      -44332.55647812 eV  <-- do not rely on this value for anything but (periodic) metals
  | Electronic free energy per atom                       :      -44332.55647812 eV
  Evaluating new KS density using the density matrix
  Evaluating density matrix
  Time summed over all CPUs for getting density from density matrix: real work       12.796 s, elapsed       13.362 s
  Integration grid: deviation in total charge (<rho> - N_e) =   0.000000E+00

  Self-consistency convergence accuracy:
  | Change of charge density      :  0.2788E+00
  | Change of unmixed KS density  :  0.1557E+03
  | Change of sum of eigenvalues  : -0.1030E+02 eV
  | Change of total energy        :  0.3205E+00 eV


------------------------------------------------------------
  End self-consistency iteration #     1       :  max(cpu_time)    wall_clock(cpu1)
  | Time for this iteration                     :        1.633 s           0.825 s
  | Charge density update                       :        0.961 s           0.481 s
  | Density mixing & preconditioning            :        0.094 s           0.047 s
  | Hartree multipole update                    :        0.002 s           0.001 s
  | Hartree multipole summation                 :        0.050 s           0.032 s
  | Integration                                 :        0.507 s           0.255 s
  | Solution of K.-S. eqns.                     :        0.016 s           0.008 s
  | Total energy evaluation                     :        0.000 s           0.000 s

  Partial memory accounting:
  | Current value for overall tracked memory usage:
  |   Minimum:        8.273 MB (on task 27)
  |   Maximum:        8.442 MB (on task  6)
  |   Average:        8.321 MB
  | Peak value for overall tracked memory usage:
  |   Minimum:       26.810 MB (on task  7 after allocating gradient_basis_wave)
  |   Maximum:       29.939 MB (on task  4 after allocating gradient_basis_wave)
  |   Average:       28.173 MB
  | Largest tracked array allocation so far:
  |   Minimum:        9.468 MB (hamiltonian_shell on task  7)
  |   Maximum:       11.543 MB (hamiltonian_shell on task  4)
  |   Average:       10.396 MB
  Note:  These values currently only include a subset of arrays which are explicitly tracked.
  The "true" memory usage will be greater.
------------------------------------------------------------

------------------------------------------------------------
          Begin self-consistency iteration #    2

  Date     :  20260625, Time     :  174200.065
------------------------------------------------------------
  Pulay mixing of updated and previous charge densities.
  Available memory per node after mixing [GB]:    510.91
  Renormalizing the density to the exact electron count on the 3D integration grid.
  | Formal number of electrons (from input files) :      74.0000000000
  | Integrated number of electrons on 3D grid     :      73.9987231715
  | Charge integration error                      :      -0.0012768285
  | Normalization factor for density and gradient :       1.0000172547

  Evaluating partitioned Hartree potential by multipole expansion.
  | Original multipole sum: apparent total charge =   0.302552E-14
  | Sum of charges compensated after spline to logarithmic grids =  -0.146241E-07
  | Analytical far-field extrapolation by fixed multipoles:
  | Hartree multipole sum: apparent total charge =   0.238598E-14
  Summing up the Hartree potential.
  Time summed over all CPUs for potential: real work        0.022 s, elapsed        0.033 s
  | RMS charge density error from multipole expansion :   0.227182E-02
  | Average real-space part of the electrostatic potential :     -0.00526326 eV

  Integrating Hamiltonian matrix: batch-based integration.
  Time summed over all CPUs for integration: real work        6.652 s, elapsed        6.999 s

  Updating Kohn-Sham eigenvalues and eigenvectors using ELSI and the (modified) LAPACK eigensolver.
  Starting LAPACK eigensolver
  Finished Cholesky decomposition
  | Time :     0.000 s
  Finished transformation to standard eigenproblem
  | Time :     0.001 s
  Finished solving standard eigenproblem
  | Time :     0.002 s
  Finished back-transformation of eigenvectors
  | Time :     0.000 s

  Obtaining occupation numbers and electronic chemical potential using ELSI.
  | Note that, for insulating systems, the printed 'chemical potential' value is not uniquely defined.
  | It can be anywhere in the energy gap, as long as it correctly separates occupied and unoccupied states.
  | In systems with a gap, the physically relevant chemical potential is the VBM or HOMO.

  | Chemical potential (Fermi level):    -5.61467702 eV
  What follows are estimated values for band gap, HOMO, LUMO, etc.
  | They are estimated on a discrete k-point grid and not necessarily exact.
  | For converged numbers, create a DOS and/or band structure plot on a denser k-grid.

  Highest occupied state (VBM) at     -6.55261600 eV (relative to internal zero)
  | Occupation number:      2.00000000
  | K-point:       1 at    0.000000    0.000000    0.000000 (in units of recip. lattice)

  Lowest unoccupied state (CBM) at    -4.67673805 eV (relative to internal zero)
  | Occupation number:      0.00000000
  | K-point:      20 at    0.375000    0.250000    0.000000 (in units of recip. lattice)

  The gap value is above 0.2 eV. Unless you are using a very sparse k-point grid,
  this system is most likely an insulator or a semiconductor.
  ESTIMATED overall HOMO-LUMO gap:      1.87587795 eV between HOMO at k-point 1 and LUMO at k-point 20
  | This appears to be an indirect band gap.
  | Smallest direct gap :      2.01374592 eV for k_point 20 at    0.375000    0.250000    0.000000 (in units of recip. lattice)

  Checking to see if s.c.f. parameters should be adjusted.
  The system likely has a gap. Increased the default Pulay mixing parameter (charge_mix_param). Value:   0.200000 .
  Kept the default occupation width. Value:   0.010000 eV.

  Total energy components:
  | Sum of eigenvalues            :       -2931.37222811 Ha      -79766.69681184 eV
  | XC energy correction          :        -175.58981250 Ha       -4778.04190224 eV
  | XC potential correction       :         228.30398688 Ha        6212.46756977 eV
  | Free-atom electrostatic energy:       -2011.99130714 Ha      -54749.06906932 eV
  | Hartree energy correction     :           3.11510142 Ha          84.76622256 eV
  | Entropy correction            :          -0.00000000 Ha          -0.00000000 eV
  | ---------------------------
  | Total energy                  :       -4887.53425946 Ha     -132996.57399108 eV
  | Total energy, T -> 0          :       -4887.53425946 Ha     -132996.57399108 eV  <-- do not rely on this value for anything but (periodic) metals
  | Electronic free energy        :       -4887.53425946 Ha     -132996.57399108 eV

  Derived energy quantities:
  | Kinetic energy                :        5017.51289451 Ha      136533.47260629 eV
  | Electrostatic energy          :       -9729.45734147 Ha     -264752.00469512 eV
  | Energy correction for multipole
  | error in Hartree potential    :          -0.00041512 Ha          -0.01129597 eV
  | Sum of eigenvalues per atom                           :      -26588.89893728 eV
  | Total energy (T->0) per atom                          :      -44332.19133036 eV  <-- do not rely on this value for anything but (periodic) metals
  | Electronic free energy per atom                       :      -44332.19133036 eV
  Evaluating new KS density using the density matrix
  Evaluating density matrix
  Time summed over all CPUs for getting density from density matrix: real work       12.740 s, elapsed       13.320 s
  Integration grid: deviation in total charge (<rho> - N_e) =   0.000000E+00

  Self-consistency convergence accuracy:
  | Change of charge density      :  0.2494E+00
  | Change of unmixed KS density  :  0.2192E-01
  | Change of sum of eigenvalues  : -0.7232E+02 eV
  | Change of total energy        :  0.1095E+01 eV


------------------------------------------------------------
  End self-consistency iteration #     2       :  max(cpu_time)    wall_clock(cpu1)
  | Time for this iteration                     :        1.633 s           0.828 s
  | Charge density update                       :        0.958 s           0.479 s
  | Density mixing & preconditioning            :        0.096 s           0.048 s
  | Hartree multipole update                    :        0.002 s           0.001 s
  | Hartree multipole summation                 :        0.054 s           0.036 s
  | Integration                                 :        0.506 s           0.255 s
  | Solution of K.-S. eqns.                     :        0.016 s           0.008 s
  | Total energy evaluation                     :        0.000 s           0.000 s

  Partial memory accounting:
  | Current value for overall tracked memory usage:
  |   Minimum:        8.274 MB (on task 27)
  |   Maximum:        8.443 MB (on task  6)
  |   Average:        8.322 MB
  | Peak value for overall tracked memory usage:
[...]
     77       0.00000                            -3.295768                -3.260278                   0.078395
     78       0.00000                            -3.295768                -3.260278                   0.000000
     79       0.00000                            -3.067343                -3.062176                   0.198103
     80       0.00000                            -3.067343                -3.062176                   0.000000
     81       0.00000                            -3.066968                -3.060243                   0.001933
     82       0.00000                            -3.066968                -3.060243                   0.000000
     83       0.00000                             0.268394                 0.268518                   3.328761
     84       0.00000                             0.268394                 0.268518                   0.000000
     85       0.00000                             2.106321                 2.106608                   1.838090
     86       0.00000                             2.106321                 2.106608                   0.000000
     87       0.00000                             2.516537                 2.516652                   0.410044
     88       0.00000                             2.516537                 2.516652                   0.000000
     89       0.00000                             3.170889                 3.171544                   0.654893
     90       0.00000                             3.170889                 3.171544                   0.000000
     91       0.00000                             4.714849                 4.682173                   1.510628
     92       0.00000                             4.714849                 4.682173                   0.000000
     93       0.00000                             4.715667                 4.755648                   0.073475
     94       0.00000                             4.715667                 4.755648                   0.000000
     95       0.00000                             6.692251                 6.683862                   1.928214
     96       0.00000                             6.692251                 6.683862                   0.000000
     97       0.00000                             6.693068                 6.700044                   0.016182
     98       0.00000                             6.693068                 6.700044                   0.000000
     99       0.00000                             7.213767                 7.216005                   0.515961
    100       0.00000                             7.213767                 7.216005                   0.000000
    101       0.00000                             9.992505                 9.984395                   2.768390
    102       0.00000                             9.992505                 9.984395                   0.000000
    103       0.00000                             9.992944                 9.999970                   0.015575
    104       0.00000                             9.992944                 9.999970                   0.000000
    105       0.00000                            10.252215                10.253895                   0.253925
    106       0.00000                            10.252215                10.253895                   0.000000
    107       0.00000                            10.252563                10.255406                   0.001511
    108       0.00000                            10.252563                10.255406                   0.000000
    109       0.00000                            12.019239                12.019473                   1.764066
    110       0.00000                            12.019239                12.019473                   0.000000
    111       0.00000                            12.263186                12.263491                   0.244019
    112       0.00000                            12.263186                12.263491                   0.000000
    113       0.00000                            15.175152                15.172974                   2.909482
    114       0.00000                            15.175152                15.172974                   0.000000
    115       0.00000                            16.277519                16.277906                   1.104932
    116       0.00000                            16.277519                16.277906                   0.000000
    117       0.00000                            18.568353                18.446090                   2.168184
    118       0.00000                            18.568353                18.446090                   0.000000
    119       0.00000                            18.569345                18.730792                   0.284701
    120       0.00000                            18.569345                18.730792                   0.000000
    121       0.00000                            20.097444                20.098480                   1.367688
    122       0.00000                            20.097444                20.098480                   0.000000
    123       0.00000                            23.250522                23.243549                   3.145069
    124       0.00000                            23.250522                23.243549                   0.000000
    125       0.00000                            23.251483                23.280339                   0.036789
    126       0.00000                            23.251483                23.280339                   0.000000
    127       0.00000                            23.624756                23.627177                   0.346838
    128       0.00000                            23.624756                23.627177                   0.000000

  What follows are estimated values for band gap, HOMO, LUMO, etc.
  | They are estimated on a discrete k-point grid and not necessarily exact.
  | For converged numbers, create a DOS and/or band structure plot on a denser k-grid.

  Highest occupied state (VBM) at     -6.16752307 eV (relative to internal zero)
  | Occupation number:      1.00000000
  | K-point:      32 at    0.750000    0.625000    0.000000 (in units of recip. lattice)

  Lowest unoccupied state (CBM) at    -4.19527482 eV (relative to internal zero)
  | Occupation number:      0.00000000
  | K-point:      30 at    0.625000    0.625000    0.000000 (in units of recip. lattice)

  The gap value is above 0.2 eV. Unless you are using a very sparse k-point grid,
  this system is most likely an insulator or a semiconductor.
  ESTIMATED overall HOMO-LUMO gap:      1.97224825 eV between HOMO at k-point 32 and LUMO at k-point 30
  | This appears to be an indirect band gap.
  | Smallest direct gap :      1.97225759 eV for k_point 30 at    0.625000    0.625000    0.000000 (in units of recip. lattice)
  Calculating total density of states ...
  | Chemical potential is  -5.181399 eV.
  | writing DOS (shifted by electron chemical potential) to file KS_DOS_total.dat
  | writing DOS (raw data) to file KS_DOS_total_raw.dat
  | Note that, for insulating systems, the printed 'chemical potential' value is not uniquely defined.
  | It can be anywhere in the energy gap, as long as it correctly separates occupied and unoccupied states.
  | In systems with a gap, the physically relevant chemical potential is the VBM or HOMO.


  Spin-orbit coupling                                     :  max(cpu_time)    wall_clock(cpu1)
  | Computing matrix elements for SOC operator            :          4.555               2.436
  | Constructing second-variational Hamiltonian           :          0.004               0.002
  | Diagonalizing second-variational Hamiltonian          :          0.014               0.007
  | Syncing data and calculating occupations              :          0.304               0.000
  | Writing out data, calculating band gaps, etc.         :          0.135               0.068
  | Total SOC time                                        :          4.788               2.513

  Partial memory accounting:
  | Current value for overall tracked memory usage:
  |   Minimum:        8.343 MB (on task 27)
  |   Maximum:        8.512 MB (on task  6)
  |   Average:        8.390 MB
  | Peak value for overall tracked memory usage:
  |   Minimum:       31.786 MB (on task  7 after allocating potential_temp)
  |   Maximum:       34.602 MB (on task  4 after allocating potential_temp)
  |   Average:       33.006 MB
  | Largest tracked array allocation so far:
  |   Minimum:        9.468 MB (hamiltonian_shell on task  7)
  |   Maximum:       11.543 MB (hamiltonian_shell on task  4)
  |   Average:       10.396 MB
  Note:  These values currently only include a subset of arrays which are explicitly tracked.
  The "true" memory usage will be greater.
 ------------------------------------------------------------

  -------------------------------------------------------------------
  Writing the requested band structure output (LAPACK version):
  -------------------------------------------------------------------


  Integrating Hamiltonian matrix: batch-based integration.
  Time summed over all CPUs for integration: real work        6.649 s, elapsed        7.013 s
  Integrating SOC matrix: batch-based integration p2 version.
  Allocating        0.192 MB for dist_tab
  Allocating        0.192 MB for dist_tab_sq
  Allocating        0.575 MB for dir_tab
  Allocating        0.014 MB for i_basis_fns
  Allocating        0.430 MB for i_basis_fns_inv
  Allocating        0.014 MB for i_atom_fns
  Allocating        4.626 MB for gradient_basis_wave
  Allocating        0.007 MB for ylm_tab
  Allocating        0.002 MB for radial_wave
  Allocating        0.002 MB for radial_wave_deriv
  Allocating        0.016 MB for i_basis
  Allocating        9.950 MB for soc_shell
  Allocating        0.021 MB for cartesians
  Allocating        0.021 MB for sum_gradient
  Allocating        0.042 MB for sum_hessian
  Allocating        0.001 MB for potential_shell
  Allocating        1.542 MB for potential_shell_center
  Allocating        0.000 MB for potential_temp

  Treating all   50 k-points in band plot segment #   1:

  Overlap matrix is not singular
  | Lowest and highest eigenvalues :  0.7881E-03,  0.7930E+01
  Finished singularity check of overlap matrix
  | Time :     0.001 s
  Starting LAPACK eigensolver
  Finished Cholesky decomposition
  | Time :     0.000 s
  Finished transformation to standard eigenproblem
  | Time :     0.001 s
  Finished solving standard eigenproblem
  | Time :     0.002 s
  Finished back-transformation of eigenvectors
  | Time :     0.000 s
  Scalar-relativistic "band gap" along reciprocal space direction number:    1
  | Lowest unoccupied state:      -3.95525849 eV
  | Highest occupied state :      -6.18461183 eV
  | Energy difference      :       2.22935334 eV

  Spin-orbit-coupled "band gap" along reciprocal space direction number:    1
  | Lowest unoccupied state:      -3.96026379 eV
  | Highest occupied state :      -6.18047992 eV
  | Energy difference      :       2.22021613 eV


  Treating all   50 k-points in band plot segment #   2:

  Scalar-relativistic "band gap" along reciprocal space direction number:    2
  | Lowest unoccupied state:      -4.35714164 eV
  | Highest occupied state :      -6.10571612 eV
  | Energy difference      :       1.74857449 eV

  Spin-orbit-coupled "band gap" along reciprocal space direction number:    2
  | Lowest unoccupied state:      -4.36190361 eV
  | Highest occupied state :      -6.03285339 eV
  | Energy difference      :       1.67094978 eV


  Treating all   50 k-points in band plot segment #   3:

  Scalar-relativistic "band gap" along reciprocal space direction number:    3
  | Lowest unoccupied state:      -4.35714164 eV
  | Highest occupied state :      -6.10571612 eV
  | Energy difference      :       1.74857449 eV

  Spin-orbit-coupled "band gap" along reciprocal space direction number:    3
  | Lowest unoccupied state:      -4.36190361 eV
  | Highest occupied state :      -6.03285339 eV
  | Energy difference      :       1.67094978 eV

  Scalar-relativistic "band gap" of total set of bands:
  | Lowest unoccupied state:      -4.35714164 eV
  | Highest occupied state :      -6.10571612 eV
  | Energy difference      :       1.74857449 eV


  Spin-orbit-coupled "band gap" of total set of bands:
  | Lowest unoccupied state:      -4.36190361 eV
  | Highest occupied state :      -6.03285339 eV
  | Energy difference      :       1.67094978 eV



  Band Structure                                          :  max(cpu_time) wall_clock(cpu1)
  | Total Time                                            :          5.032            2.530
------------------------------------------------------------

------------------------------------------------------------------------------
  Final output of selected total energy values:

  The following output summarizes some interesting total energy values
  at the end of a run (AFTER all relaxation, molecular dynamics, etc.).

  | Total energy of the DFT / Hartree-Fock s.c.f. calculation      :        -132996.512561621 eV
  | Final zero-broadening corrected energy (caution - metals only) :        -132996.512561621 eV
  | Total energy after non-SC SOC correction (DO NOT USE)          :        -132996.634443793 eV
  | For reference only, the value of 1 Hartree used in FHI-aims is :             27.211384500 eV
  | For reference only, the overall average (free atom contribution
  | + realspace contribution) of the electrostatic potential after
  | s.c.f. convergence is                                          :             -4.831223332 eV

  Before relying on these values, please be sure to understand exactly which
  total energy value is referred to by a given number. Different objects may
  all carry the same name 'total energy'. Definitions:

  Total energy of the DFT / Hartree-Fock s.c.f. calculation:
  | Note that this energy does not include ANY quantities calculated after the
  | s.c.f. cycle, in particular not ANY RPA, MP2, etc. many-body perturbation terms.

  Final zero-broadening corrected energy:
  | For metallic systems only, a broadening of the occupation numbers at the Fermi
  | level can be extrapolated back to zero broadening by an electron-gas inspired
  | formula. For all systems that are not real metals, this value can be
  | meaningless and should be avoided.

------------------------------------------------------------------------------
  Methods described in the following list of references were used in this FHI-aims run.
  If you publish the results, please make sure to cite these reference if they apply.
  FHI-aims is an academic code, and for our developers (often, Ph.D. students
  and postdocs), scientific credit in the community is essential.
  Thank you for helping us!

  For any use of FHI-aims, please cite:

    Volker Blum, Ralf Gehrke, Felix Hanke, Paula Havu, Ville Havu,
    Xinguo Ren, Karsten Reuter, and Matthias Scheffler
    'Ab initio molecular simulations with numeric atom-centered orbitals'
    Computer Physics Communications 180, 2175-2196 (2009)
    http://doi.org/10.1016/j.cpc.2009.06.022


  The provided symmetry information was generated with SPGlib:

    Atsushi Togo, Yusuke Seto, Dimitar Pashov
    SPGlib 1.7.3 obtained from http://spglib.sourceforge.net
    Licence: New BSD license
    Copyright (C) 2008 Atsushi Togo


  For second-variational spin-orbit coupling used in your run, please cite:

    William P. Huhn and Volker Blum,
    'One-hundred-three compound band-structure benchmark of post-self-consistent'
    'spin-orbit coupling treatments in density functional theory'
    Phys. Rev. Materials 1, 033803 (2017).


  The ELSI infrastructure was used in your run to solve the Kohn-Sham electronic structure.
  Please check out https://wordpress.elsi-interchange.org to learn more.
  If scalability is important for your project, please acknowledge ELSI by citing:

    V. W-z. Yu, F. Corsetti, A. Garcia, W. P. Huhn, M. Jacquelin, W. Jia,
    B. Lange, L. Lin, J. Lu, W. Mi, A. Seifitokaldani, A. Vazquez-Mayagoitia,
    C. Yang, H. Yang, and V. Blum
    'ELSI: A unified software interface for Kohn-Sham electronic structure solvers'
    Computer Physics Communications 222, 267-285 (2018).
    http://doi.org/10.1016/j.cpc.2017.09.007


  For the real-space grid partitioning and parallelization used in this calculation, please cite:

    Ville Havu, Volker Blum, Paula Havu, and Matthias Scheffler,
    'Efficient O(N) integration for all-electron electronic structure calculation'
    'using numerically tabulated basis functions'
    Journal of Computational Physics 228, 8367-8379 (2009).
    http://doi.org/10.1016/j.jcp.2009.08.008

  Of course, there are many other important community references, e.g., those cited in the
  above references. Our list is limited to references that describe implementations in the
  FHI-aims code. The reason is purely practical (length of this list) - please credit others as well.
------------------------------------------------------------
Warnings summary:

At least    0 warnings were raised during execution.

------------------------------------------------------------
          Leaving FHI-aims.
          Date     :  20260625, Time     :  174218.202

          Computational steps:
          | Number of self-consistency cycles          :           17
          | Number of SCF (re)initializations          :            1

          Detailed time accounting                     :  max(cpu_time)    wall_clock(cpu1)
          | Total time                                  :       39.318 s          20.312 s
          | Preparation time                            :        0.209 s           0.209 s
          | Boundary condition initalization            :        0.019 s           0.019 s
          | Grid partitioning                           :        0.083 s           0.067 s
          | Preloading free-atom quantities on grid     :        0.135 s           0.072 s
          | Free-atom superposition energy              :        0.014 s           0.007 s
          | Total time for integrations                 :        9.497 s           4.786 s
          | Total time for solution of K.-S. equations  :        0.296 s           0.150 s
          | Total time for density update               :       16.287 s           8.141 s
          | Total time for mixing & preconditioning     :        1.611 s           0.801 s
          | Total time for Hartree multipole update     :        0.032 s           0.017 s
          | Total time for Hartree multipole sum        :        0.945 s           0.641 s
          | Total time for total energy evaluation      :        0.008 s           0.009 s
          | Total time for scaled ZORA corrections      :        0.000 s           0.000 s
          | Total time for perturbative SOC             :        4.788 s           2.513 s
          | Total time for band structures, DOS         :        5.280 s           2.655 s

          Partial memory accounting:
          | Residual value for overall tracked memory usage across tasks:     0.000000 MB (should be 0.000000 MB)
          | Peak values for overall tracked memory usage:
          |   Minimum:       32.108 MB (on task  7 after allocating potential_temp)
          |   Maximum:       34.924 MB (on task  4 after allocating potential_temp)
          |   Average:       33.327 MB
          | Largest tracked array allocation:
          |   Minimum:        9.468 MB (hamiltonian_shell on task  7)
          |   Maximum:       11.543 MB (hamiltonian_shell on task  4)
          |   Average:       10.396 MB
          Note:  These values currently only include a subset of arrays which are explicitly tracked.
          The "true" memory usage will be greater.

          Have a nice day.
------------------------------------------------------------
