------------------------------------------------------------
          Invoking FHI-aims ...

          When using FHI-aims, please cite the following reference:

            Volker Blum, Ralf Gehrke, Felix Hanke, Paula Havu,
            Ville Havu, Xinguo Ren, Karsten Reuter, and Matthias Scheffler,
            'Ab Initio Molecular Simulations with Numeric Atom-Centered Orbitals',
            Computer Physics Communications 180, 2175-2196 (2009)

          In addition, many other developments in FHI-aims are likely important for
          your particular application. If so, please cite them. A partial list of references
          is written at the end of this file. Thank you for giving credit to the authors
          of these developments.

          For general information about FHI-aims please find us at

            https://fhi-aims.org

          Online tutorials can be found at

            https://fhi-aims-club.gitlab.io/tutorials/tutorials-overview/

          For any questions about FHI-aims, please visit our slack channel at

            https://fhi-aims.slack.com

          and our main development and support site at

            https://aims-git.rz-berlin.mpg.de .

          The latter site, in particular, has a wiki to collect information, as well
          as an issue tracker to log discussions, suggest improvements, and report issues
          or bugs. https://aims-git.rz-berlin.mpg.de is also the main development site
          of the project and all new and updated code versions can be obtained there.
          Please send an email to aims-coordinators@ms1p.org and we will add
          you to these sites. They are for you and everyone is welcome there.

------------------------------------------------------------



  Date     :  20260625, Time     :  170810.040
  Time zero on CPU 1             :   0.919620000000000E-01  s.
  Internal wall clock time zero  :           551639290.040  s.

  FHI-aims created a unique identifier for this run for later identification
  aims_uuid : 9C8CBDF9-18CE-4D7D-A4C2-E688A5AA07A9

  Build configuration of the current instance of FHI-aims
  -------------------------------------------------------
  FHI-aims version      : 260530
  Commit number         : 7a57fd8ff
  CMake host system     : Linux-6.8.0-124-generic
  CMake version         : 3.28.3
  OS Distribution       : Ubuntu 24.04.4 LTS
  Built on              : AMD Ryzen Threadripper PRO 7975WX 32-Cores
  Fortran compiler      : /usr/local/openmpi/bin/mpifort (GNU) version 13.3.0
  Fortran compiler flags: -O3 -march=native -ffree-line-length-none -fallow-argument-mismatch
  C compiler            : /usr/local/openmpi/bin/mpicc (GNU) version 13.3.0
  C compiler flags      : -O3 -march=native -std=gnu99
  C++ compiler          : /usr/local/openmpi/bin/mpicxx (GNU) version 13.3.0
  C++ compiler flags    : -O3 -march=native
  HIP compiler          :
  HIP compiler flags    :
  HIP GPU arch          :
  Using MPI
  Using ScaLAPACK
  Using LibXC
  Using i-PI
  Using RLSY
  Using GREENX
  Linking against: /usr/lib/x86_64-linux-gnu/libscalapack-openmpi.so
                   /usr/lib/x86_64-linux-gnu/libopenblas.so

  Using       28 parallel tasks.
  Task        0 on host jhworkstation reporting.
  Task        1 on host jhworkstation reporting.
  Task        2 on host jhworkstation reporting.
  Task        3 on host jhworkstation reporting.
  Task        4 on host jhworkstation reporting.
  Task        5 on host jhworkstation reporting.
  Task        6 on host jhworkstation reporting.
  Task        7 on host jhworkstation reporting.
  Task        8 on host jhworkstation reporting.
  Task        9 on host jhworkstation reporting.
  Task       10 on host jhworkstation reporting.
  Task       11 on host jhworkstation reporting.
  Task       12 on host jhworkstation reporting.
  Task       13 on host jhworkstation reporting.
  Task       14 on host jhworkstation reporting.
  Task       15 on host jhworkstation reporting.
  Task       16 on host jhworkstation reporting.
  Task       17 on host jhworkstation reporting.
  Task       18 on host jhworkstation reporting.
  Task       19 on host jhworkstation reporting.
  Task       20 on host jhworkstation reporting.
  Task       21 on host jhworkstation reporting.
  Task       22 on host jhworkstation reporting.
  Task       23 on host jhworkstation reporting.
  Task       24 on host jhworkstation reporting.
  Task       25 on host jhworkstation reporting.
  Task       26 on host jhworkstation reporting.
  Task       27 on host jhworkstation reporting.

  Obtaining array dimensions for all initial allocations:
  
  -----------------------------------------------------------------------
  Parsing control.in (first pass over file, find array dimensions only).
  The contents of control.in will be repeated verbatim below
  unless switched off by setting 'verbatim_writeout .false.' .
  in the first line of control.in .
  -----------------------------------------------------------------------
  
  #===============================================================================
  
  # FHI-aims control file: /home/lacoxson/work/fhi-tutorial/fhi-soc-testing/monolayer_unitcell_light/relaxation_light/control.in
  
  # Thu Jun 25 17:08:09 2026
  
  #===============================================================================
  xc                                                pbe
  vdw_ts
  relativistic                                      atomic_zora scalar
  k_grid                                            8 8 1
  sc_iter_limit                                     100
  relax_geometry                                    bfgs 5e-3
  relax_unit_cell                                   slab
  #===============================================================================
  
  ################################################################################
  #
  #  FHI-aims code project
  #  VB, Fritz-Haber Institut, 2009
  #
  #  Suggested "light" defaults for C atom (to be pasted into control.in file)
  #  Be sure to double-check any results obtained with these settings for post-processing,
  #  e.g., with the "tight" defaults and larger basis sets.
  #
  ################################################################################
    species               C
  #     global species definitions
    nucleus               6.0
    mass                  12.0107
  #
    l_hartree             4
  #
    cut_pot               3.5 1.5 1.0
    basis_dep_cutoff      0.0001
  #
    radial_base    34   5.0000
    radial_multiplier        1
    angular_grids  specified
    division       0.3326   50
    division       0.5710  110
    division       0.7727  194
    division       0.8772  302
    outer_grid     302
  ##################################################################################
  #
  #  Definition of "minimal" basis
  #
  ##################################################################################
  #     valence basis states
      valence      2  s   2.
      valence      2  p   2.
  #     ion occupancy
      ion_occ      2  s   1.
      ion_occ      2  p   1.
  ##################################################################################
  #
  #  Suggested additional basis functions. For production calculations,
  #  uncomment them one after another (the most important basis functions are
  #  listed first).
  #
  #  These were set using pyfhiaims, original may files have additional comments
  #
  ##################################################################################
  #  First tier
               hydro      2  p  1.7
               hydro      3  d  6.0
               hydro      2  s  4.9
  #  Second tier
  #            hydro      4  f  9.8
  #            hydro      3  p  5.2
  #            hydro      3  s  4.3
  #            hydro      5  g  14.4
  #            hydro      3  d  6.2
  #  Third tier
  #            hydro      2  p  5.6
  #            hydro      2  s  1.4
  #            hydro      3  d  4.9
  #            hydro      4  f  11.2
  #  Fourth tier
  #            hydro      2  p  2.1
  #            hydro      5  g  16.4
  #            hydro      4  d  13.2
  #            hydro      3  s  13.6
  #            hydro      4  f  17.6
  #  Further basis functions
  #            hydro      3  s  2.0
  #            hydro      3  p  6.0
  #            hydro      4  d  20.0
  
  -----------------------------------------------------------------------
  Completed first pass over input file control.in .
  -----------------------------------------------------------------------
  
  
  -----------------------------------------------------------------------
  Parsing geometry.in (first pass over file, find array dimensions only).
  The contents of geometry.in will be repeated verbatim below
  unless switched off by setting 'verbatim_writeout .false.' .
  in the first line of geometry.in .
  -----------------------------------------------------------------------
  
  #===============================================================================
  # File written by pyfhiaims
  # Thu Jun 25 17:08:09 2026
  #===============================================================================
  atom         0.000000000000e+00   0.000000000000e+00   0.000000000000e+00 C
  atom         1.230000000000e+00   7.101408311030e-01   0.000000000000e+00 C
  
  -----------------------------------------------------------------------
  Completed first pass over input file geometry.in .
  -----------------------------------------------------------------------
  

  Basic array size parameters:
  | Number of species                 :        1
  | Number of atoms                   :        2
  | Max. basis fn. angular momentum   :        2
  | Max. atomic/ionic basis occupied n:        2
  | Max. number of basis fn. types    :        2
  | Max. radial fns per species/type  :        3
  | Max. logarithmic grid size        :     1277
  | Max. radial integration grid size :       34
  | Max. angular integration grid size:      302
  | Max. angular grid division number :        8
  | Radial grid for Hartree potential :     1277
  | Number of spin channels           :        1

  Definition of standardized fundamental physical constants in this FHI-aims run:
  | Using the set of values used in FHI-aims up to 2024, which combines values from
  | different CODATA sets - see constants.f90.
  | Use the 'codata' keyword in control.in to change this selection.

  Memory overcommitment is allowed on your operating system.

------------------------------------------------------------
          Reading file control.in.
------------------------------------------------------------
  XC: Using PBE gradient-corrected functionals.
  Using libMBD for calculating MBD and TS energies
  Scalar relativistic treatment of kinetic energy: on-site free-atom approximation to ZORA.
  Found k-point grid:         8         8         1
  Maximum number of s.-c. iterations  :   100
  Geometry relaxation: Modified BFGS - TRM (trust radius method) for lattice optimization.
  Convergence accuracy for geometry relaxation: Maximum force <   0.500000E-02 eV/A.
 * Unit cell relaxation does not make sense in the cluster case!
 *** read_control:
 
 *** read_control:
 
