------------------------------------------------------------
          Invoking FHI-aims ...

          When using FHI-aims, please cite the following reference:

            Volker Blum, Ralf Gehrke, Felix Hanke, Paula Havu,
            Ville Havu, Xinguo Ren, Karsten Reuter, and Matthias Scheffler,
            'Ab Initio Molecular Simulations with Numeric Atom-Centered Orbitals',
            Computer Physics Communications 180, 2175-2196 (2009)

          In addition, many other developments in FHI-aims are likely important for
          your particular application. If so, please cite them. A partial list of references
          is written at the end of this file. Thank you for giving credit to the authors
          of these developments.

          For general information about FHI-aims please find us at

            https://fhi-aims.org

          Online tutorials can be found at

            https://fhi-aims-club.gitlab.io/tutorials/tutorials-overview/

          For any questions about FHI-aims, please visit our slack channel at

            https://fhi-aims.slack.com

          and our main development and support site at

            https://aims-git.rz-berlin.mpg.de .

          The latter site, in particular, has a wiki to collect information, as well
          as an issue tracker to log discussions, suggest improvements, and report issues
          or bugs. https://aims-git.rz-berlin.mpg.de is also the main development site
          of the project and all new and updated code versions can be obtained there.
          Please send an email to aims-coordinators@ms1p.org and we will add
          you to these sites. They are for you and everyone is welcome there.

------------------------------------------------------------



  Date     :  20260625, Time     :  174117.778
  Time zero on CPU 1             :   0.885810000000000E-01  s.
  Internal wall clock time zero  :           551641277.778  s.

  FHI-aims created a unique identifier for this run for later identification
  aims_uuid : C8260DDA-B8B9-4C61-A712-34525132AAB7

  Build configuration of the current instance of FHI-aims
  -------------------------------------------------------
  FHI-aims version      : 260530
  Commit number         : 7a57fd8ff
  CMake host system     : Linux-6.8.0-124-generic
  CMake version         : 3.28.3
  OS Distribution       : Ubuntu 24.04.4 LTS
  Built on              : AMD Ryzen Threadripper PRO 7975WX 32-Cores
  Fortran compiler      : /usr/local/openmpi/bin/mpifort (GNU) version 13.3.0
  Fortran compiler flags: -O3 -march=native -ffree-line-length-none -fallow-argument-mismatch
  C compiler            : /usr/local/openmpi/bin/mpicc (GNU) version 13.3.0
  C compiler flags      : -O3 -march=native -std=gnu99
  C++ compiler          : /usr/local/openmpi/bin/mpicxx (GNU) version 13.3.0
  C++ compiler flags    : -O3 -march=native
  HIP compiler          :
  HIP compiler flags    :
  HIP GPU arch          :
  Using MPI
  Using ScaLAPACK
  Using LibXC
  Using i-PI
  Using RLSY
  Using GREENX
  Linking against: /usr/lib/x86_64-linux-gnu/libscalapack-openmpi.so
                   /usr/lib/x86_64-linux-gnu/libopenblas.so

  Using       28 parallel tasks.
  Task        0 on host jhworkstation reporting.
  Task        1 on host jhworkstation reporting.
  Task        2 on host jhworkstation reporting.
  Task        3 on host jhworkstation reporting.
  Task        4 on host jhworkstation reporting.
  Task        5 on host jhworkstation reporting.
  Task        6 on host jhworkstation reporting.
  Task        7 on host jhworkstation reporting.
  Task        8 on host jhworkstation reporting.
  Task        9 on host jhworkstation reporting.
  Task       10 on host jhworkstation reporting.
  Task       11 on host jhworkstation reporting.
  Task       12 on host jhworkstation reporting.
  Task       13 on host jhworkstation reporting.
  Task       14 on host jhworkstation reporting.
  Task       15 on host jhworkstation reporting.
  Task       16 on host jhworkstation reporting.
  Task       17 on host jhworkstation reporting.
  Task       18 on host jhworkstation reporting.
  Task       19 on host jhworkstation reporting.
  Task       20 on host jhworkstation reporting.
  Task       21 on host jhworkstation reporting.
  Task       22 on host jhworkstation reporting.
  Task       23 on host jhworkstation reporting.
  Task       24 on host jhworkstation reporting.
  Task       25 on host jhworkstation reporting.
  Task       26 on host jhworkstation reporting.
  Task       27 on host jhworkstation reporting.

  Obtaining array dimensions for all initial allocations:
  
  -----------------------------------------------------------------------
  Parsing control.in (first pass over file, find array dimensions only).
  The contents of control.in will be repeated verbatim below
  unless switched off by setting 'verbatim_writeout .false.' .
  in the first line of control.in .
  -----------------------------------------------------------------------
  
  #===============================================================================
  
  # FHI-aims control file: /home/lacoxson/work/fhi-tutorial/fhi-soc-testing/MoS2_unitcell/relaxation_light/control.in
  
  # Thu Jun 25 17:41:17 2026
  
  #===============================================================================
  xc                                                pbe
  vdw_ts
  relativistic                                      atomic_zora scalar
  k_grid                                            8 8 1
  sc_iter_limit                                     100
  relax_geometry                                    bfgs 5e-3
  relax_unit_cell                                   slab
  #===============================================================================
  
  ################################################################################
  #
  #  FHI-aims code project
  #  VB, Fritz-Haber Institut, 2009
  #
  #  Suggested "light" defaults for S atom (to be pasted into control.in file)
  #  Be sure to double-check any results obtained with these settings for post-processing,
  #  e.g., with the "tight" defaults and larger basis sets.
  #
  #  2020/09/08 Added f function to "light" after reinspection of Delta test outcomes.
  #             This was done for all of Al-Cl and is a tricky decision since it makes
  #             "light" calculations measurably more expensive for these elements.
  #             Nevertheless, outcomes for P, S, Cl (and to some extent, Si) appear
  #             to justify this choice.
  #
  ################################################################################
    species               S
  #     global species definitions
    nucleus               16.0
    mass                  32.065
  #
    l_hartree             4
  #
    cut_pot               3.5 1.5 1.0
    basis_dep_cutoff      0.0001
  #
    radial_base    44   5.0000
    radial_multiplier        1
    angular_grids  specified
    division       0.4665  110
    division       0.5810  194
    division       0.7139  302
    outer_grid     302
  ##################################################################################
  #
  #  Definition of "minimal" basis
  #
  ##################################################################################
  #     valence basis states
      valence      3  s   2.
      valence      3  p   4.
  #     ion occupancy
      ion_occ      3  s   1.
      ion_occ      3  p   3.
  ##################################################################################
  #
  #  Suggested additional basis functions. For production calculations,
  #  uncomment them one after another (the most important basis functions are
  #  listed first).
  #
  #  These were set using pyfhiaims, original may files have additional comments
  #
  ##################################################################################
  #  First tier
               ionic      3  d  auto
               hydro      2  p  1.8
               hydro      4  f  7.0
               ionic      3  s  auto
  #  Second tier
  #            hydro      4  d  6.2
  #            hydro      5  g  10.8
  #            hydro      4  p  4.9
  #            hydro      5  f  10.0
  #            hydro      1  s  0.8
  #  Third tier
  #            hydro      3  d  3.9
  #            hydro      3  d  2.7
  #            hydro      5  g  12.0
  #            hydro      4  p  10.4
  #            hydro      5  f  12.4
  #            hydro      2  s  1.9
  #  Fourth tier
  #            hydro      4  d  10.4
  #            hydro      4  p  7.2
  #            hydro      4  d  10.0
  #            hydro      5  g  19.2
  #            hydro      4  s  12.0################################################################################
  #
  #  FHI-aims code project
  #  VB, Fritz-Haber Institut, 2009
  #
  #  Suggested "light" defaults for Mo atom (to be pasted into control.in file)
  #  Be sure to double-check any results obtained with these settings for post-processing,
  #  e.g., with the "tight" defaults and larger basis sets.
  #
  ################################################################################
    species               Mo
  #     global species definitions
    nucleus               42.0
    mass                  95.94
  #
    l_hartree             4
  #
    cut_pot               3.5 1.5 1.0
    basis_dep_cutoff      0.0001
  #
    radial_base    59   5.0000
    radial_multiplier        1
    angular_grids  specified
    division       0.4847   50
    division       0.9168  110
    division       1.2280  194
    division       1.6402  302
    outer_grid     302
  ##################################################################################
  #
  #  Definition of "minimal" basis
  #
  ##################################################################################
  #     valence basis states
      valence      5  s   1.
      valence      4  p   6.
      valence      4  d   5.
  #     ion occupancy
      ion_occ      5  s   0.
      ion_occ      4  p   6.
      ion_occ      4  d   4.
  ##################################################################################
  #
  #  Suggested additional basis functions. For production calculations,
  #  uncomment them one after another (the most important basis functions are
  #  listed first).
  #
  #  These were set using pyfhiaims, original may files have additional comments
  #
  ##################################################################################
  #  First tier
               hydro      4  f  8.4
               hydro      3  d  2.8
               ionic      5  p  auto
  #            hydro      5  g  12.0
               ionic      5  s  auto
  #  Second tier
  #            hydro      4  f  12.4
  #            hydro      3  d  3.3
  #            hydro      6  h  17.2
  #            hydro      4  f  7.6
  #            hydro      3  p  3.0
  #            hydro      1  s  0.65
  #  Third tier
  #            hydro      4  f  29.2
  #            hydro      5  g  11.2
  #            hydro      3  d  6.8
  #            hydro      6  h  14.8
  #            hydro      2  p  2.3
  #            hydro      4  s  3.8
  #  Fourth tier
  #            hydro      5  f  6.8
  #            hydro      5  d  14.8
  #            hydro      6  s  7.8
  #            hydro      5  g  20.8
  #            hydro      5  d  10.4
  #            hydro      5  p  9.8
  #            hydro      5  d  3.2
  
  -----------------------------------------------------------------------
  Completed first pass over input file control.in .
  -----------------------------------------------------------------------
  
  
  -----------------------------------------------------------------------
  Parsing geometry.in (first pass over file, find array dimensions only).
  The contents of geometry.in will be repeated verbatim below
  unless switched off by setting 'verbatim_writeout .false.' .
  in the first line of geometry.in .
  -----------------------------------------------------------------------
  
  #===============================================================================
  # File written by pyfhiaims
  # Thu Jun 25 17:41:17 2026
  #===============================================================================
  lattice_vector 3.180000000000000e+00 0.000000000000000e+00 0.000000000000000e+00
  lattice_vector -1.590000000000000e+00 2.753960784034515e+00 0.000000000000000e+00
  lattice_vector 0.000000000000000e+00 0.000000000000000e+00 2.319000000000000e+01
  atom         0.000000000000e+00   0.000000000000e+00   1.159500000000e+01 Mo
  atom         1.590000000000e+00   9.179869280120e-01   1.319000000000e+01 S
  atom         1.590000000000e+00   9.179869280120e-01   1.000000000000e+01 S
  
  -----------------------------------------------------------------------
  Completed first pass over input file geometry.in .
  -----------------------------------------------------------------------
  

  Basic array size parameters:
  | Number of species                 :        2
  | Number of atoms                   :        3
  | Number of lattice vectors         :        3
  | Max. basis fn. angular momentum   :        3
  | Max. atomic/ionic basis occupied n:        5
  | Max. number of basis fn. types    :        3
  | Max. radial fns per species/type  :       10
  | Max. logarithmic grid size        :     1436
  | Max. radial integration grid size :       59
  | Max. angular integration grid size:      302
  | Max. angular grid division number :        8
  | Radial grid for Hartree potential :     1436
  | Number of spin channels           :        1

  Definition of standardized fundamental physical constants in this FHI-aims run:
  | Using the set of values used in FHI-aims up to 2024, which combines values from
  | different CODATA sets - see constants.f90.
  | Use the 'codata' keyword in control.in to change this selection.

  Memory overcommitment is allowed on your operating system.

------------------------------------------------------------
          Reading file control.in.
------------------------------------------------------------
  XC: Using PBE gradient-corrected functionals.
  Using libMBD for calculating MBD and TS energies
  Scalar relativistic treatment of kinetic energy: on-site free-atom approximation to ZORA.
  Found k-point grid:         8         8         1
  Maximum number of s.-c. iterations  :   100
  Geometry relaxation: Modified BFGS - TRM (trust radius method) for lattice optimization.
  Convergence accuracy for geometry relaxation: Maximum force <   0.500000E-02 eV/A.

  Reading configuration options for species S                   .
  | Found nuclear charge :  16.0000
  | Found atomic mass :    32.064999999999998      amu
  | Found l_max for Hartree potential  :   4
  | Found cutoff potl. onset [A], width [A], scale factor :    3.50000    1.50000    1.00000
  | Threshold for basis-dependent cutoff potential is   0.100000E-03
  | Found data for basic radial integration grid :    44 points, outermost radius =    5.000 A
  | Found multiplier for basic radial grid :   1
  | Found angular grid specification: user-specified.
  | Specified grid contains     4 separate shells.
  | Check grid settings after all constraints further below.
  | Found free-atom valence shell :  3 s   2.000
  | Found free-atom valence shell :  3 p   4.000
  | Found free-ion valence shell :  3 s   1.000
  | Found free-ion valence shell :  3 p   3.000
  | Found ionic basis function :  3 d , default cutoff radius.
  | Found hydrogenic basis function :  2 p   1.800
  | Found hydrogenic basis function :  4 f   7.000
  | Found ionic basis function :  3 s , default cutoff radius.
 | Encountered keyword species, ending the description of species S                   .
  Species S                   : Missing cutoff potential type.
  Defaulting to exp(1/x)/(1-x)^2 type cutoff potential.
  Species S : No 'logarithmic' tag. Using default grid for free atom:
  | Default logarithmic grid data [bohr] : 0.1000E-03 0.1000E+03 0.1012E+01
  | Will include ionic basis functions of  2.0-fold positive S                    ion.
  Species S : On-site basis accuracy parameter (for Gram-Schmidt orthonormalisation) not specified.
  Using default value basis_acc =  0.1000000E-03.
  Species S                   : Using default innermost maximum threshold i_radial=  2 for radial functions.
  Species S                   : Default cutoff onset for free atom density etc. : 0.35000000E+01 AA.
  Species S                   : Basic radial grid will be enhanced according to radial_multiplier =   1, to contain    44 grid points.

  Reading configuration options for species Mo                  .
  | Found nuclear charge :  42.0000
  | Found atomic mass :    95.939999999999998      amu
  | Found l_max for Hartree potential  :   4
  | Found cutoff potl. onset [A], width [A], scale factor :    3.50000    1.50000    1.00000
  | Threshold for basis-dependent cutoff potential is   0.100000E-03
  | Found data for basic radial integration grid :    59 points, outermost radius =    5.000 A
  | Found multiplier for basic radial grid :   1
  | Found angular grid specification: user-specified.
  | Specified grid contains     5 separate shells.
  | Check grid settings after all constraints further below.
  | Found free-atom valence shell :  5 s   1.000
  | Found free-atom valence shell :  4 p   6.000
  | Found free-atom valence shell :  4 d   5.000
  | Found free-ion valence shell :  5 s   0.000
  | Found free-ion valence shell :  4 p   6.000
  | Found free-ion valence shell :  4 d   4.000
  | Found hydrogenic basis function :  4 f   8.400
  | Found hydrogenic basis function :  3 d   2.800
  | Found ionic basis function :  5 p , default cutoff radius.
  | Found ionic basis function :  5 s , default cutoff radius.
  Species Mo                  : Missing cutoff potential type.
  Defaulting to exp(1/x)/(1-x)^2 type cutoff potential.
  Species Mo: No 'logarithmic' tag. Using default grid for free atom:
  | Default logarithmic grid data [bohr] : 0.1000E-03 0.1000E+03 0.1012E+01
  | Will include ionic basis functions of  2.0-fold positive Mo                   ion.
  Species Mo: On-site basis accuracy parameter (for Gram-Schmidt orthonormalisation) not specified.
  Using default value basis_acc =  0.1000000E-03.
  Species Mo                  : Using default innermost maximum threshold i_radial=  2 for radial functions.
  Species Mo                  : Default cutoff onset for free atom density etc. : 0.35000000E+01 AA.
  Species Mo                  : Basic radial grid will be enhanced according to radial_multiplier =   1, to contain    59 grid points.

  Finished reading input file 'control.in'.

------------------------------------------------------------


------------------------------------------------------------
          Reading geometry description geometry.in.
------------------------------------------------------------
  | The smallest distance between any two atoms is         2.43204132 AA.
  | The first atom of this pair is atom number                      1 .
  | The second atom of this pair is atom number                     2 .
  | Wigner-Seitz cell of the first atom image           0     1    -1 .
  | (The Wigner-Seitz cell of the second atom is 0 0 0  by definition.)

  Symmetry information by spglib:
  | Precision set to  0.1E-04
  | Number of Operations  : 12
  | Space group           : 187
  | International         : P-6m2
  | Schoenflies           : D3h^1
  Input structure read successfully.
  The structure contains        3 atoms,  and a total of         74.000 electrons.

  Input geometry:
  | Unit cell:
  |        3.18000000        0.00000000        0.00000000
  |       -1.59000000        2.75396078        0.00000000
  |        0.00000000        0.00000000       23.19000000
  | Atomic structure:
  |       Atom                x [A]            y [A]            z [A]
  |    1: Species Mo            0.00000000        0.00000000       11.59500000
  |    2: Species S             1.59000000        0.91798693       13.19000000
  |    3: Species S             1.59000000        0.91798693       10.00000000

  Lattice parameters for 3D lattice (in Angstroms) :     3.180000    3.180000   23.190000
  Angle(s) between unit vectors (in degrees)       :    90.000000   90.000000  120.000000


  Quantities derived from the lattice vectors (in Angstrom^-1):
  | Reciprocal lattice vector 1:  1.975844  1.140754  0.000000
  | Reciprocal lattice vector 2:  0.000000  2.281509  0.000000
  | Reciprocal lattice vector 3:  0.000000  0.000000  0.270944
  | Unit cell volume                               :   0.203089E+03  Angstrom^3

  Fractional coordinates:
                         L1                L2                L3
       atom_frac         0.00000000        0.00000000        0.50000000  Mo
       atom_frac         0.66666667        0.33333333        0.56877965  S
       atom_frac         0.66666667        0.33333333        0.43122035  S

  Slab Identifier: This is Z-oriented slab and maximum thickness of the vacuum is: 20.000 Angstrom.
  Relaxation constraint has been set for slab relaxation:
  -- lattice vectors 1 and 2: Z coordinate fixed.
  -- lattice vector 3: All components fixed.

  Finished reading input file 'geometry.in'.



  Consistency checks for stacksize environment parameter are next.

  | Maximum stacksize for task 0: unlimited
  | Maximum stacksize for task 1: unlimited
  | Maximum stacksize for task 2: unlimited
  | Maximum stacksize for task 3: unlimited
  | Maximum stacksize for task 4: unlimited
  | Maximum stacksize for task 5: unlimited
  | Maximum stacksize for task 6: unlimited
  | Maximum stacksize for task 7: unlimited
  | Maximum stacksize for task 8: unlimited
  | Maximum stacksize for task 9: unlimited
  | Maximum stacksize for task 10: unlimited
  | Maximum stacksize for task 11: unlimited
  | Maximum stacksize for task 12: unlimited
  | Maximum stacksize for task 13: unlimited
  | Maximum stacksize for task 14: unlimited
  | Maximum stacksize for task 15: unlimited
  | Maximum stacksize for task 16: unlimited
  | Maximum stacksize for task 17: unlimited
  | Maximum stacksize for task 18: unlimited
  | Maximum stacksize for task 19: unlimited
  | Maximum stacksize for task 20: unlimited
  | Maximum stacksize for task 21: unlimited
  | Maximum stacksize for task 22: unlimited
  | Maximum stacksize for task 23: unlimited
  | Maximum stacksize for task 24: unlimited
  | Maximum stacksize for task 25: unlimited
  | Maximum stacksize for task 26: unlimited
  | Maximum stacksize for task 27: unlimited
  | Current stacksize for task 0: unlimited
  | Current stacksize for task 1: unlimited
  | Current stacksize for task 2: unlimited
  | Current stacksize for task 3: unlimited
  | Current stacksize for task 4: unlimited
  | Current stacksize for task 5: unlimited
  | Current stacksize for task 6: unlimited
  | Current stacksize for task 7: unlimited
  | Current stacksize for task 8: unlimited
  | Current stacksize for task 9: unlimited
  | Current stacksize for task 10: unlimited
  | Current stacksize for task 11: unlimited
  | Current stacksize for task 12: unlimited
  | Current stacksize for task 13: unlimited
  | Current stacksize for task 14: unlimited
  | Current stacksize for task 15: unlimited
  | Current stacksize for task 16: unlimited
  | Current stacksize for task 17: unlimited
  | Current stacksize for task 18: unlimited
  | Current stacksize for task 19: unlimited
  | Current stacksize for task 20: unlimited
  | Current stacksize for task 21: unlimited
  | Current stacksize for task 22: unlimited
  | Current stacksize for task 23: unlimited
  | Current stacksize for task 24: unlimited
  | Current stacksize for task 25: unlimited
  | Current stacksize for task 26: unlimited
  | Current stacksize for task 27: unlimited

  Consistency checks for the contents of control.in are next.

  MPI_IN_PLACE appears to work with this MPI implementation.
  | Keeping use_mpi_in_place .true. (see manual).
  Target number of points in a grid batch is not set. Defaulting to  100
  Method for grid partitioning is not set. Defaulting to parallel hash+maxmin partitioning.
  Batch size limit is not set. Defaulting to    200
  By default, will store active basis functions for each batch.
  If in need of memory, prune_basis_once .false. can be used to disable this option.
  communication_type for Hartree potential was not specified.
  Defaulting to calc_hartree .
  Defaulting to Pulay charge density mixer.
  Pulay mixer: Number of relevant iterations not set.
  Defaulting to    8 iterations.
  Pulay mixer: Number of initial linear mixing iterations not set.
  Defaulting to    0 iterations.
  Work space size for distributed Hartree potential not set.
  Defaulting to   0.200000E+03 MB.
  Mixing parameter for charge density mixing has not been set.
  Using default: charge_mix_param =     0.0500.
  The mixing parameter will be adjusted in iteration number     2 of each s.c.f. cycle (i.e., each geometry step).
  Algorithm-dependent basis array size parameters:
  | n_max_pulay                         :        8
  Presetting      1001 iterations before the initial mixing cycle
  is restarted anyway using the sc_init_iter criterion / keyword.
  Presetting a factor      1.000 between actual scf density residual
  and density convergence criterion sc_accuracy_rho below which sc_init_iter
  takes no effect.
 * No s.c.f. convergence criteria (sc_accuracy_*) were provided in control.in.
 * The run will proceed with a reasonable default guess, but please check whether.
 * the s.c.f. cycles seem to take too much or too little time.
  No maximum number of relaxation steps, defaulting to     1000
  Default initial Hessian is Lindh matrix (thres = 15.00) plus  0.200000E+01 eV/A^2 times unity.
  No maximum energy tolerance for TRM/BFGS moves, defaulting to   0.150000E-02
  Maximum energy tolerance by which TRM/BFGS trajectory may increase over multiple steps:   0.300000E-02
  No harmonic length scale. Defaulting to   0.250000E-01 A.
  No trust radius initializer. Defaulting to   0.200000E+00 A.
  Unit cell relaxation: Analytical stress will be used.
  Analytical stress will be computed.
  Analytical stress calculation: Only the upper triangle is calculated.
                                 Final output is symmetrized.
  Analytical stress calculation: scf convergence accuracy of stress not set.
                                 Analytical stress self-consistency will not be checked explicitly.
                                 Be sure to set other criteria like sc_accuracy_rho tight enough.
  Forces evaluation will include force correction term due to incomplete self-consistency (default).
 * Notice: The s.c.f. convergence criterion sc_accuracy_rho was not provided.
 * We used to stop in this case, and ask the user to provide reasonable
 * scf convergence criteria. However, this led some users to employ criteria
 * that led to extremely long run times, e.g., for simple relaxation.
 * We now preset a default value for sc_accuracy_rho if it is not set.
 * You may still wish to check if this setting is too tight or too loose for your needs.
 * Based on n_atoms and forces and force-correction status, FHI-aims chose sc_accuracy_rho =  0.100000E-05 .
  Force calculation: scf convergence accuracy of forces not set.
  Defaulting to 'sc_accuracy_forces not_checked'.
  Handling of forces: Unphysical translation and rotation will be removed from forces.
  No accuracy limit for integral partition fn. given. Defaulting to  0.1000E-14.
  No threshold value for u(r) in integrations given. Defaulting to  0.1000E-05.
  No occupation type (smearing scheme) given. Defaulting to Gaussian broadening, width =  0.1000E-01 eV.
  The width will be adjusted in iteration number     2 of each s.c.f. cycle (i.e., each geometry step).
  No accuracy for occupation numbers given. Defaulting to  0.1000E-12.
  No threshold value for occupation numbers given. Defaulting to  0.0000E+00.
  No accuracy for fermi level given. Defaulting to  0.1000E-19.
  Maximum # of iterations to find E_F not set. Defaulting to  200.
  Preferred method for the eigenvalue solver ('KS_method') not specified in 'control.in'.
  Defaulting to serial version, LAPACK (via ELSI), since more k-points than CPUs available.
  Threshold for basis singularities not set.
  Default threshold for basis singularities:  0.1000E-04
  partition_type (choice of integration weights) for integrals was not specified.
  | Using a version of the partition function of Stratmann and coworkers ('stratmann_sparse').
  | At each grid point, the set of atoms used to build the partition table is smoothly restricted to
  | only those atoms whose free-atom density would be non-zero at that grid point.
  Partitioning for Hartree potential was not defined. Using partition_type for integrals.
  | Adjusted default value of keyword multip_moments_threshold to:       0.10000000E-11
  | This value may affect high angular momentum components of the Hartree potential in periodic systems.
  Using 2025 definition of centers list for evaluation of the Stratmann partition function.
  Spin handling was not defined in control.in. Defaulting to unpolarized case.
  Angular momentum expansion for Kerker preconditioner not set explicitly.
  | Using default value of   0
  No explicit requirement for turning off preconditioner.
  | By default, it will be turned off when the charge convergence reaches
  | sc_accuracy_rho  =   0.100000E-05
  No special mixing parameter while Kerker preconditioner is on.
  Using default: charge_mix_param =     0.0500.
  No q(lm)/r^(l+1) cutoff set for long-range Hartree potential.
  | Using default value of  0.100000E-09 .
  | Verify using the multipole_threshold keyword.
  Defaulting to new monopole extrapolation.
  Density update method: automatic selection selected.
  Using density matrix based charge density update.
  Using density matrix based charge density update.
  Using packed matrix style: index .
  Threshold of packed matrixes:  0.000000E+00
  Geometry relaxation: A file "geometry.in.next_step" is written out by default after each step.
  | This file contains the geometry of the current relaxation step as well as
  | the current Hessian matrix needed to restart the relaxation algorithm.
  | If you do not want part or all of this information, use the keywords
  | "write_restart_geometry" or "hessian_to_restart_geometry" to switch the output off.
  Defaulting to use time-reversal symmetry for k-point grid.
  Charge integration errors on the 3D integration grid will be compensated
  by explicit normalization and distribution of residual charges.
  Use the "compensate_multipole_errors" flag to change this behaviour.
  Set 'collect_eigenvectors' to be '.true.' for all serial calculations. This is mandatory.
  Set 'collect_eigenvectors' to be '.true.' for KS_method lapack_fast and serial.
  Found potential conflicts with setting 'use_local_index' for this calculation. Will not set it.

  Consistency checks for the contents of geometry.in are next.


  Range separation radius for Ewald summation (hartree_convergence_parameter):      5.00000000 bohr.
  Number of empty states per atom not set in control.in - providing a guess from actual geometry.
  | Total number of empty states used during s.c.f. cycle:       12
  If you use a very high smearing, use empty_states (per atom!) in control.in to increase this value.

  Structure-dependent array size parameters: 
  | Maximum number of distinct radial functions  :       23
  | Maximum number of basis functions            :       90
  | Number of Kohn-Sham states (occupied + empty):       49
------------------------------------------------------------

  Checking k-grid inconsistencies now:
  | k-point density for reciprocal lattice vector 1 is    3.51 nkpts / Angstrom^-1
  | k-point density for reciprocal lattice vector 2 is    3.51 nkpts / Angstrom^-1
  | k-point density for reciprocal vacuum lattice vector 3 is    3.69 nkpts / Angstrom^-1

  | Ratio of k-point densities for reciprocal lattice vectors 1 vs 2 is    1.00

  * The specified k_grid leads to a nearly homogenous k-grid density in non-vacuum directions,
  * and seems sensible.

  | Checks passed.
  After read_input_data [GB]:    512.78

  Performing system and environment tests:
  *** Environment variable OMP_NUM_THREADS is not set
  *** For performance reasons you might want to set it to 1
  | Checking for ScaLAPACK...
  | Testing pdtran()...
  | All pdtran() tests passed.
  | Testing CPU compatibility for run-time vs. build-time.
  | Reading /proc/cpuinfo for CPU information ...
  | Built for  : AMD Ryzen Threadripper PRO 7975WX 32-Cores
  | Running on : AMD Ryzen Threadripper PRO 7975WX 32-Cores
  | Runtime CPU compatibility verified.
  
  After prepare_system [GB]:    512.74

------------------------------------------------------------
          Preparing all fixed parts of the calculation.
------------------------------------------------------------
  Determining machine precision:
     2.2250738585072014E-308
  Setting up grids for atomic and cluster calculations.

  Creating wave function, potential, and density for free atoms.
  Runtime choices for atomic solver:
  | atomic solver xc        : PBE
  | compute density gradient: 1
  | compute kinetic density : F

  Species: S

  List of occupied orbitals and eigenvalues:
    n    l              occ      energy [Ha]    energy [eV]
    1    0           2.0000       -88.678258     -2413.0582
    2    0           2.0000        -7.779365      -211.6873
    3    0           2.0000        -0.631865       -17.1939
    2    1           6.0000        -5.749610      -156.4549
    3    1           4.0000        -0.255301        -6.9471


  Species: Mo

  List of occupied orbitals and eigenvalues:
    n    l              occ      energy [Ha]    energy [eV]
    1    0           2.0000      -745.333848    -20281.5659
    2    0           2.0000      -103.277699     -2810.3292
    3    0           2.0000       -17.506203      -476.3680
    4    0           2.0000        -2.348313       -63.9008
    5    0           1.0000        -0.135274        -3.6810
    2    1           6.0000       -92.298078     -2511.5585
    3    1           6.0000       -13.925523      -378.9328
    4    1           6.0000        -1.398018       -38.0420
    3    2          10.0000        -8.108532      -220.6444
    4    2           5.0000        -0.123864        -3.3705


  Adding cutoff potential to free-atom effective potential.
  Creating fixed part of basis set: Ionic, confined, hydrogenic.

  S                    ion:
  Runtime choices for ionic solver:
  | ionic solver xc        : PBE

  List of free ionic orbitals and eigenvalues:
    n    l      energy [Ha]    energy [eV]
    1    0       -89.703778     -2440.9640
    2    0        -8.775428      -238.7916
    3    0        -1.470343       -40.0101
    2    1        -6.747660      -183.6132
    3    1        -1.048627       -28.5346


  List of ionic basis orbitals and eigenvalues:
    n    l      energy [Ha]    energy [eV]    outer radius [A]
    3    2        -0.495221       -13.4756       4.539062
    3    0        -1.470325       -40.0096       3.642502


  S                    hydrogenic:

  List of hydrogenic basis orbitals: 
    n    l      effective z      eigenvalue [eV]  inner max. [A]     outer max. [A]     outer radius [A]   
    2    1         1.800000       -10.9749           1.168531           1.168531           4.594893
    4    3         7.000000       -41.6658           1.212182           1.212182           4.539062


  Mo                   ion:
  Runtime choices for ionic solver:
  | ionic solver xc        : PBE

  List of free ionic orbitals and eigenvalues:
    n    l      energy [Ha]    energy [eV]
    1    0      -746.048685    -20301.0176
    2    0      -103.980912     -2829.4646
    3    0       -18.206601      -495.4268
    4    0        -3.040545       -82.7374
    2    1       -93.001013     -2530.6863
    3    1       -14.625827      -397.9890
    4    1        -2.084855       -56.7318
    3    2        -8.808854      -239.7011
    4    2        -0.765435       -20.8285


  List of ionic basis orbitals and eigenvalues:
    n    l      energy [Ha]    energy [eV]    outer radius [A]
    5    1        -0.462835       -12.5944       4.598077
    5    0        -0.649837       -17.6830       4.542208


  Mo                   hydrogenic:

  List of hydrogenic basis orbitals: 
    n    l      effective z      eigenvalue [eV]  inner max. [A]     outer max. [A]     outer radius [A]   
    4    3         8.400000       -60.0006           1.009788           1.009788           4.119012
    3    2         2.800000       -11.6571           1.666898           1.666898           4.598077

  Creating atomic-like basis functions for current effective potential.

  Species S                   :

  List of atomic basis orbitals and eigenvalues:
    n    l      energy [Ha]    energy [eV]    outer radius [A]
    1    0       -88.678258     -2413.0582       0.682391
    2    0        -7.779365      -211.6873       2.289014
    3    0        -0.631865       -17.1939       4.483910
    2    1        -5.749610      -156.4549       2.555240
    3    1        -0.255301        -6.9471       4.539062


  Species Mo                  :

  List of atomic basis orbitals and eigenvalues:
    n    l      energy [Ha]    energy [eV]    outer radius [A]
    1    0      -745.333848    -20281.5659       0.247552
    2    0      -103.277699     -2810.3292       0.682864
    3    0       -17.506203      -476.3680       1.626637
    4    0        -2.348313       -63.9008       4.019524
    5    0        -0.135274        -3.6810       4.598077
    2    1       -92.298078     -2511.5585       0.699766
    3    1       -13.925523      -378.9328       1.793761
    4    1        -1.398018       -38.0420       4.272881
    3    2        -8.108532      -220.6444       2.181285
    4    2        -0.123864        -3.3705       4.542208

  Assembling full basis from fixed parts.
  | Species S :   atomic orbital   1 s accepted.
  | Species S :   atomic orbital   2 s accepted.
  | Species S :    ionic orbital   3 s accepted.
  | Species S :   atomic orbital   3 s accepted.
  | Species S :   atomic orbital   2 p accepted.
  | Species S :   atomic orbital   3 p accepted.
  | Species S :    hydro orbital   2 p accepted.
  | Species S :    ionic orbital   3 d accepted.
  | Species S :    hydro orbital   4 f accepted.
  | Species Mo :   atomic orbital   1 s accepted.
  | Species Mo :   atomic orbital   2 s accepted.
  | Species Mo :   atomic orbital   3 s accepted.
  | Species Mo :   atomic orbital   4 s accepted.
  | Species Mo :    ionic orbital   5 s accepted.
  | Species Mo :   atomic orbital   5 s accepted.
  | Species Mo :   atomic orbital   2 p accepted.
  | Species Mo :   atomic orbital   3 p accepted.
  | Species Mo :   atomic orbital   4 p accepted.
  | Species Mo :    ionic orbital   5 p accepted.
  | Species Mo :   atomic orbital   3 d accepted.
  | Species Mo :   atomic orbital   4 d accepted.
  | Species Mo :    hydro orbital   3 d accepted.
  | Species Mo :    hydro orbital   4 f accepted.

  Basis size parameters after reduction:
  | Total number of radial functions:       23
  | Total number of basis functions :       90

  Per-task memory consumption for arrays in subroutine allocate_ext:
  |           8.458668MB.
  Testing on-site integration grid accuracy.
  |  Species  Function  <phi|h_atom|phi> (log., in eV)  <phi|h_atom|phi> (rad., in eV)
           1        1              -2413.0581659109              -2413.0570554886
           1        2               -211.6872814127               -211.6872738937
           1        3                -16.9208611991                -16.9208255642
           1        4                  7.5845503345                  7.5614252779
           1        5               -156.4548540501               -156.4548540107
           1        6                 -6.9485729304                 -6.9508389945
           1        7                  7.5803076288                  7.5258504832 ***
           1        8                  6.1173006980                  6.1127563631
           1        9                 24.7512183535                 24.7503558869
           2       10             -20281.5659320675             -20281.5323559148 ***
           2       11              -2810.3291693068              -2810.3286854703
           2       12               -476.3680236302               -476.3680079684
           2       13                -63.9008496011                -63.9008488153
           2       14                 -3.1589031744                 -3.1626118517
           2       15                  6.6219449585                  6.4059388831 ***
           2       16              -2511.5584946714              -2511.5584926613
           2       17               -378.9327641188               -378.9327633055
           2       18                -38.0420009841                -38.0420006865
           2       19                  0.5956589048                  0.5771251364
           2       20               -220.6443822950               -220.6443820003
           2       21                 -3.3734068167                 -3.3762615058
           2       22                  8.2366836575                  8.1872404255 ***
           2       23                 23.6292330546                 23.6292104921
 * Note: Onsite integrals marked "***" above are less accurate than
 * onsite_accuracy_threshold =    0.03000 eV. Usually, this is harmless.
 * However, one integral did have a negative value. This integral could be important.
 * When in doubt, tighten the "radial" and/or "radial_multiplier" flags to check.

  Preparing densities etc. for the partition functions (integrals / Hartree potential).
 Frequency grid relative error: 0.12425793727288692E-009                          
 Will use parallel mode: k_points  

  Preparations completed.
  max(cpu_time)          :      0.196 s.
  Wall clock time (cpu1) :      0.197 s.
------------------------------------------------------------
  After prepare_scf [GB]:    511.21

  Initializing index lists of integration centers etc. from given atomic structure:
  Mapping all atomic coordinates to central unit cell.

  Initializing the k-points
  Using symmetry for reducing the k-points
  | k-points reduced from:       64 to       34
  | Number of k-points                             :        34
  The eigenvectors in the calculations are COMPLEX.
  | K-points in task   0:         1
  | K-points in task   1:         2
  | K-points in task   2:         2
  | K-points in task   3:         2
  | K-points in task   4:         2
  | K-points in task   5:         2
  | K-points in task   6:         2
  | K-points in task   7:         1
  | K-points in task   8:         1
  | K-points in task   9:         1
  | K-points in task  10:         1
  | K-points in task  11:         1
  | K-points in task  12:         1
  | K-points in task  13:         1
  | K-points in task  14:         1
  | K-points in task  15:         1
  | K-points in task  16:         1
  | K-points in task  17:         1
  | K-points in task  18:         1
  | K-points in task  19:         1
  | K-points in task  20:         1
  | K-points in task  21:         1
  | K-points in task  22:         1
  | K-points in task  23:         1
  | K-points in task  24:         1
  | K-points in task  25:         1
  | K-points in task  26:         1
  | K-points in task  27:         1
  | Number of basis functions in the Hamiltonian integrals       :      2364
  | Number of basis functions in a single unit cell              :        90
  | Number of centers in hartree potential                       :       641
  | Number of centers in hartree multipole                       :       248
  | Number of centers in electron density summation              :       194
  | Number of centers in basis integrals                         :       208
  | Number of centers in integrals                               :       106
  | Number of centers in hamiltonian                             :       194
  | Number of centers in partition table from touching 0-cell    :       106
  | Number of centers in partition table total                   :       208
  | Consuming         56 KiB for k_phase.
  | Number of super-cells (origin) [n_cells]                     :        1125
  | Number of super-cells (after PM_index) [n_cells]             :         106
  | Number of super-cells in hamiltonian [n_cells_in_hamiltonian]:         106
  | Size of matrix packed + index [n_hamiltonian_matrix_size]    :       91891
  After initialize_bc_dependent_lists [GB]:    511.22

------------------------------------------------------------
          Begin self-consistency loop: Initialization.

          Date     :  20260625, Time     :  174118.008
------------------------------------------------------------

  Initializing relaxation algorithms.
  Finished initialization of distributed Hessian storage.
  | Global dimension:        13
  | BLACS block size:         1
  | Number of workers:       13

  Available memory per node after initialize_hartree_non_periodic_ewald [GB]:    511.22
  | Estimated reciprocal-space cutoff momentum G_max:         1.84432723 bohr^-1 .
  | Reciprocal lattice points for long-range Hartree potential:     138
  Available memory per node after initialize_recip_hartree_potential [GB]:    511.22
  Available memory per node after initialize_scalapack [GB]:    511.22
  Available memory per node after aims_elsi_init_scf [GB]:    511.22
  Available memory per node after initialize_fixed_grids [GB]:    511.22
  Partitioning the integration grid into batches with parallel hashing+maxmin method.
  | Number of batches:      290
  | Maximal batch size:     198
  | Minimal batch size:      35
  | Average batch size:      87.703
  | Standard deviation of batch sizes:      16.989

  Integration load balanced across    28 MPI tasks.
  Work distribution over tasks is as follows:
  Task     0 has        942 integration points.
  Task     1 has        922 integration points.
  Task     2 has        946 integration points.
  Task     3 has        885 integration points.
  Task     4 has        889 integration points.
  Task     5 has        894 integration points.
  Task     6 has        932 integration points.
  Task     7 has        882 integration points.
  Task     8 has        860 integration points.
  Task     9 has        939 integration points.
  Task    10 has        875 integration points.
  Task    11 has        911 integration points.
  Task    12 has        936 integration points.
  Task    13 has        855 integration points.
  Task    14 has        870 integration points.
  Task    15 has        932 integration points.
  Task    16 has        938 integration points.
  Task    17 has        941 integration points.
  Task    18 has        878 integration points.
  Task    19 has        945 integration points.
  Task    20 has        931 integration points.
  Task    21 has        911 integration points.
  Task    22 has        884 integration points.
  Task    23 has        949 integration points.
  Task    24 has        921 integration points.
  Task    25 has        875 integration points.
  Task    26 has        903 integration points.
  Task    27 has        888 integration points.
  Available memory per node after partition_grid [GB]:    511.22
  Initializing partition tables, free-atom densities, potentials, etc. across the integration grid (initialize_grid_storage).
  | initialize_grid_storage: Actual outermost partition radius vs. multipole_radius_free
  | (-- VB: in principle, multipole_radius_free should be larger, hence this output)
  | Species        1: Confinement radius =              4.999999999999999 AA, multipole_radius_free =              5.005414751018925 AA.
  | Species        1: outer_partition_radius set to              5.005414751018925 AA .
  | Species        2: Confinement radius =              4.999999999999999 AA, multipole_radius_free =              5.008883881164426 AA.
  | Species        2: outer_partition_radius set to              5.008883881164426 AA .
  | The sparse table of interatomic distances needs        152.08 kbyte instead of       346.11 kbyte of memory.
  | Net number of integration points:    25434
  | of which are non-zero points    :    22940
  | Numerical average free-atom electrostatic potential    :     -4.69643295 eV
  Available memory per node after initialize_grid_storage_p1 [GB]:    511.22
  Renormalizing the initial density to the exact electron count on the 3D integration grid.
  | Initial density: Formal number of electrons (from input files) :      74.0000000000
  | Integrated number of electrons on 3D grid     :      74.0000275757
  | Charge integration error                      :       0.0000275757
  | Normalization factor for density and gradient :       0.9999996274
  Renormalizing the free-atom superposition density to the exact electron count on the 3D integration grid.
  | Formal number of electrons (from input files) :      74.0000000000
  | Integrated number of electrons on 3D grid     :      74.0000275757
  | Charge integration error                      :       0.0000275757
  | Normalization factor for density and gradient :       0.9999996274
  Obtaining max. number of non-zero basis functions in each batch (get_n_compute_maxes).
  | Maximal number of non-zero basis functions:      580 in task     0
  | Maximal number of non-zero basis functions:      647 in task     1
  | Maximal number of non-zero basis functions:      561 in task     2
  | Maximal number of non-zero basis functions:      627 in task     3
  | Maximal number of non-zero basis functions:      612 in task     4
  | Maximal number of non-zero basis functions:      636 in task     5
  | Maximal number of non-zero basis functions:      628 in task     6
  | Maximal number of non-zero basis functions:      678 in task     7
  | Maximal number of non-zero basis functions:      643 in task     8
  | Maximal number of non-zero basis functions:      593 in task     9
  | Maximal number of non-zero basis functions:      650 in task    10
  | Maximal number of non-zero basis functions:      570 in task    11
  | Maximal number of non-zero basis functions:      619 in task    12
  | Maximal number of non-zero basis functions:      612 in task    13
  | Maximal number of non-zero basis functions:      597 in task    14
  | Maximal number of non-zero basis functions:      570 in task    15
  | Maximal number of non-zero basis functions:      612 in task    16
  | Maximal number of non-zero basis functions:      665 in task    17
  | Maximal number of non-zero basis functions:      635 in task    18
  | Maximal number of non-zero basis functions:      640 in task    19
  | Maximal number of non-zero basis functions:      587 in task    20
  | Maximal number of non-zero basis functions:      633 in task    21
  | Maximal number of non-zero basis functions:      620 in task    22
  | Maximal number of non-zero basis functions:      623 in task    23
  | Maximal number of non-zero basis functions:      584 in task    24
  | Maximal number of non-zero basis functions:      600 in task    25
  | Maximal number of non-zero basis functions:      624 in task    26
  | Maximal number of non-zero basis functions:      641 in task    27
  Available memory per node after get_n_compute_maxes_p1 [GB]:    511.22
  Allocating        0.067 MB for KS_eigenvector_complex
  Available memory per node after allocate_matrices [GB]:    511.22
  Available memory per node after init_comm_sparse_local_matrix_scalapack [GB]:    511.22
  Integrating Hamiltonian matrix: batch-based integration.
  Time summed over all CPUs for integration: real work        0.723 s, elapsed        0.842 s
  Available memory per node after integrate hamiltonian matrix [GB]:    511.22
  Integrating overlap matrix.
  Time summed over all CPUs for integration: real work        0.478 s, elapsed        0.563 s
  Available memory per node after integrate ovlp matrix [GB]:    511.20
  Available memory per node after save_overlap_scalapack [GB]:    511.20

  Updating Kohn-Sham eigenvalues and eigenvectors using ELSI and the (modified) LAPACK eigensolver.
  Singularity check in k-point 28, task 0 (analysis for other k-points/tasks may follow below):
  Overlap matrix is not singular
  | Lowest and highest eigenvalues :  0.1061E-02,  0.5844E+01
  Finished singularity check of overlap matrix
  | Time :     0.001 s
  Starting LAPACK eigensolver
  Finished Cholesky decomposition
  | Time :     0.000 s
  Finished transformation to standard eigenproblem
  | Time :     0.000 s
  Finished solving standard eigenproblem
  | Time :     0.001 s
  Finished back-transformation of eigenvectors
  | Time :     0.000 s

  Obtaining occupation numbers and electronic chemical potential using ELSI.
  | Note that, for insulating systems, the printed 'chemical potential' value is not uniquely defined.
  | It can be anywhere in the energy gap, as long as it correctly separates occupied and unoccupied states.
  | In systems with a gap, the physically relevant chemical potential is the VBM or HOMO.

  | Chemical potential (Fermi level):    -4.55419379 eV
  Available memory per node after advance_KS_solution [GB]:    511.20
  Writing Kohn-Sham eigenvalues.
  K-point:       1 at    0.000000    0.000000    0.000000 (in units of recip. lattice)

  State    Occupation    Eigenvalue [Ha]    Eigenvalue [eV]
      1       2.00000        -745.344254       -20281.84909
      2       2.00000        -103.289019        -2810.63722
      3       2.00000         -92.309421        -2511.86715
      4       2.00000         -92.309421        -2511.86715
      5       2.00000         -92.309419        -2511.86709
      6       2.00000         -88.699428        -2413.63423
      7       2.00000         -88.699428        -2413.63423
      8       2.00000         -17.519024         -476.71689
      9       2.00000         -13.938414         -379.28354
     10       2.00000         -13.938414         -379.28354
     11       2.00000         -13.938395         -379.28303
     12       2.00000          -8.121385         -220.99412
     13       2.00000          -8.121385         -220.99412
     14       2.00000          -8.121378         -220.99395
     15       2.00000          -8.121378         -220.99395
     16       2.00000          -8.121343         -220.99298
     17       2.00000          -7.803211         -212.33617
     18       2.00000          -7.803211         -212.33617
     19       2.00000          -5.773456         -157.10374
     20       2.00000          -5.773455         -157.10371
     21       2.00000          -5.773006         -157.09148
     22       2.00000          -5.773006         -157.09148
     23       2.00000          -5.773005         -157.09147
     24       2.00000          -5.773005         -157.09147
     25       2.00000          -2.375727          -64.64682
     26       2.00000          -1.435836          -39.07108
     27       2.00000          -1.424838          -38.77182
     28       2.00000          -1.424838          -38.77182
     29       2.00000          -0.760957          -20.70670
     30       2.00000          -0.716484          -19.49652
     31       2.00000          -0.434423          -11.82126
     32       2.00000          -0.311967           -8.48905
     33       2.00000          -0.304404           -8.28325
     34       2.00000          -0.304398           -8.28309
     35       2.00000          -0.271020           -7.37484
     36       2.00000          -0.271012           -7.37462
     37       2.00000          -0.204711           -5.57048
     38       0.00000          -0.110105           -2.99610
     39       0.00000          -0.110098           -2.99593
     40       0.00000          -0.109722           -2.98570
     41       0.00000          -0.109706           -2.98525
     42       0.00000           0.000843            0.02295
     43       0.00000           0.097163            2.64394
     44       0.00000           0.099248            2.70069
     45       0.00000           0.128923            3.50818
     46       0.00000           0.169852            4.62190
     47       0.00000           0.169855            4.62198
     48       0.00000           0.244617            6.65636
     49       0.00000           0.244651            6.65730

  What follows are estimated values for band gap, HOMO, LUMO, etc.
  | They are estimated on a discrete k-point grid and not necessarily exact.
  | For converged numbers, create a DOS and/or band structure plot on a denser k-grid.

  Highest occupied state (VBM) at     -5.44346790 eV (relative to internal zero)
  | Occupation number:      2.00000000
  | K-point:      20 at    0.375000    0.250000    0.000000 (in units of recip. lattice)

  Lowest unoccupied state (CBM) at    -3.66491968 eV (relative to internal zero)
  | Occupation number:      0.00000000
  | K-point:       7 at    0.125000    0.125000    0.000000 (in units of recip. lattice)

  The gap value is above 0.2 eV. Unless you are using a very sparse k-point grid,
  this system is most likely an insulator or a semiconductor.
  ESTIMATED overall HOMO-LUMO gap:      1.77854822 eV between HOMO at k-point 20 and LUMO at k-point 7
  | This appears to be an indirect band gap.
  | Smallest direct gap :      2.29529900 eV for k_point 6 at    0.125000    0.000000    0.000000 (in units of recip. lattice)
  Calculating total energy contributions from superposition of free atom densities.

  Total energy components:
  | Sum of eigenvalues            :       -2927.09384544 Ha      -79650.27609579 eV
  | XC energy correction          :        -175.64835968 Ha       -4779.63505193 eV
  | XC potential correction       :         228.38034328 Ha        6214.54533325 eV
  | Free-atom electrostatic energy:       -2013.22433866 Ha      -54782.62156392 eV
  | Hartree energy correction     :          -0.00000000 Ha          -0.00000000 eV
  | vdW energy correction         :           0.00000000 Ha           0.00000000 eV
  | Entropy correction            :          -0.00000000 Ha          -0.00000000 eV
  | ---------------------------
  | Total energy                  :       -4887.58620049 Ha     -132997.98737839 eV
  | Total energy, T -> 0          :       -4887.58620049 Ha     -132997.98737839 eV  <-- do not rely on this value for anything but (periodic) metals
  | Electronic free energy        :       -4887.58620049 Ha     -132997.98737839 eV

  Derived energy quantities:
  | Kinetic energy                :        5018.28153305 Ha      136554.38832513 eV
  | Electrostatic energy          :       -9730.21937386 Ha     -264772.74065158 eV
  | Energy correction for multipole
  | error in Hartree potential    :           0.00000000 Ha           0.00000000 eV
  | Sum of eigenvalues per atom                           :      -26550.09203193 eV
  | Total energy (T->0) per atom                          :      -44332.66245946 eV  <-- do not rely on this value for anything but (periodic) metals
  | Electronic free energy per atom                       :      -44332.66245946 eV
  Initialize hartree_potential_storage
  Max. number of atoms included in rho_multipole:            3

  End scf initialization - timings             :  max(cpu_time)    wall_clock(cpu1)
  | Time for scf. initialization                :        0.177 s           0.096 s
  | Boundary condition initialization           :        0.013 s           0.012 s
  | Relaxation initialization                   :        0.001 s           0.001 s
  | Integration                                 :        0.110 s           0.055 s
  | Solution of K.-S. eqns.                     :        0.010 s           0.005 s
  | Grid partitioning                           :        0.024 s           0.019 s
  | Preloading free-atom quantities on grid     :        0.027 s           0.013 s
  | Free-atom superposition energy              :        0.004 s           0.002 s
  | Total energy evaluation                     :        0.000 s           0.000 s

  Partial memory accounting:
  | Current value for overall tracked memory usage:
  |   Minimum:        1.856 MB (on task  0)
  |   Maximum:        1.923 MB (on task  1)
  |   Average:        1.870 MB
  | Peak value for overall tracked memory usage:
  |   Minimum:        6.879 MB (on task  2 after allocating wave)
  |   Maximum:        8.451 MB (on task  7 after allocating wave)
  |   Average:        7.597 MB
  | Largest tracked array allocation so far:
  |   Minimum:        2.401 MB (hamiltonian_shell on task  2)
  |   Maximum:        3.507 MB (hamiltonian_shell on task  7)
  |   Average:        2.914 MB
  Note:  These values currently only include a subset of arrays which are explicitly tracked.
  The "true" memory usage will be greater.
------------------------------------------------------------
  Available memory after initialize_scf [GB]:    511.20
  Available memory after allocating mixing [GB]:    511.20
  Evaluating new KS density using the density matrix
  Evaluating density matrix
  Time summed over all CPUs for getting density from density matrix: real work        1.414 s, elapsed        1.643 s
  Integration grid: deviation in total charge (<rho> - N_e) =   1.421085E-14

  Time for density update prior                :  max(cpu_time)    wall_clock(cpu1)
  | self-consistency iterative process          :        0.120 s           0.060 s
  Available memory before start of SCF loop [GB]:    511.19

------------------------------------------------------------
          Begin self-consistency iteration #    1

  Date     :  20260625, Time     :  174118.165
------------------------------------------------------------
  Pulay mixing of updated and previous charge densities.
  Available memory per node after mixing [GB]:    511.21
  Renormalizing the density to the exact electron count on the 3D integration grid.
  | Formal number of electrons (from input files) :      74.0000000000
  | Integrated number of electrons on 3D grid     :      74.0000110893
  | Charge integration error                      :       0.0000110893
  | Normalization factor for density and gradient :       0.9999998501

  Evaluating partitioned Hartree potential by multipole expansion.
  | Original multipole sum: apparent total charge =  -0.197674E-13
  | Sum of charges compensated after spline to logarithmic grids =   0.113343E-06
  | Analytical far-field extrapolation by fixed multipoles:
  | Hartree multipole sum: apparent total charge =  -0.197397E-13
  Summing up the Hartree potential.
  Time summed over all CPUs for potential: real work        0.008 s, elapsed        0.008 s
  | RMS charge density error from multipole expansion :   0.123467E-02
  | Average real-space part of the electrostatic potential :     -0.00113962 eV

  Integrating Hamiltonian matrix: batch-based integration.
  Time summed over all CPUs for integration: real work        0.704 s, elapsed        0.828 s

  Updating Kohn-Sham eigenvalues and eigenvectors using ELSI and the (modified) LAPACK eigensolver.
  Starting LAPACK eigensolver
  Finished Cholesky decomposition
  | Time :     0.000 s
  Finished transformation to standard eigenproblem
  | Time :     0.000 s
  Finished solving standard eigenproblem
  | Time :     0.001 s
  Finished back-transformation of eigenvectors
  | Time :     0.000 s

  Obtaining occupation numbers and electronic chemical potential using ELSI.
  | Note that, for insulating systems, the printed 'chemical potential' value is not uniquely defined.
  | It can be anywhere in the energy gap, as long as it correctly separates occupied and unoccupied states.
  | In systems with a gap, the physically relevant chemical potential is the VBM or HOMO.

  | Chemical potential (Fermi level):    -4.70333721 eV
  Writing Kohn-Sham eigenvalues.
  K-point:       1 at    0.000000    0.000000    0.000000 (in units of recip. lattice)

  State    Occupation    Eigenvalue [Ha]    Eigenvalue [eV]
      1       2.00000        -745.366874       -20282.46460
      2       2.00000        -103.311364        -2811.24525
      3       2.00000         -92.331902        -2512.47888
      4       2.00000         -92.331901        -2512.47887
      5       2.00000         -92.331901        -2512.47887
      6       2.00000         -88.692942        -2413.45774
      7       2.00000         -88.692942        -2413.45774
      8       2.00000         -17.538352         -477.24284
      9       2.00000         -13.957748         -379.80964
     10       2.00000         -13.957747         -379.80963
     11       2.00000         -13.957721         -379.80892
     12       2.00000          -8.140970         -221.52706
     13       2.00000          -8.140970         -221.52706
     14       2.00000          -8.140948         -221.52648
     15       2.00000          -8.140948         -221.52648
     16       2.00000          -8.140886         -221.52477
     17       2.00000          -7.798441         -212.20637
     18       2.00000          -7.798441         -212.20636
     19       2.00000          -5.768475         -156.96819
     20       2.00000          -5.768474         -156.96816
     21       2.00000          -5.768111         -156.95828
     22       2.00000          -5.768111         -156.95828
     23       2.00000          -5.768110         -156.95827
     24       2.00000          -5.768110         -156.95827
     25       2.00000          -2.389886          -65.03211
     26       2.00000          -1.448525          -39.41637
     27       2.00000          -1.438016          -39.13041
     28       2.00000          -1.438016          -39.13040
     29       2.00000          -0.760345          -20.69005
     30       2.00000          -0.715409          -19.46728
     31       2.00000          -0.435715          -11.85641
     32       2.00000          -0.310964           -8.46176
     33       2.00000          -0.307853           -8.37712
     34       2.00000          -0.307848           -8.37696
     35       2.00000          -0.273099           -7.43140
     36       2.00000          -0.273091           -7.43118
     37       2.00000          -0.209954           -5.71313
     38       0.00000          -0.114665           -3.12018
     39       0.00000          -0.114658           -3.12001
     40       0.00000          -0.113183           -3.07985
     41       0.00000          -0.113166           -3.07939
     42       0.00000          -0.000973           -0.02647
     43       0.00000           0.097455            2.65188
     44       0.00000           0.098306            2.67505
     45       0.00000           0.130009            3.53773
     46       0.00000           0.169492            4.61212
     47       0.00000           0.169495            4.61221
     48       0.00000           0.244452            6.65187
     49       0.00000           0.244487            6.65284

  What follows are estimated values for band gap, HOMO, LUMO, etc.
  | They are estimated on a discrete k-point grid and not necessarily exact.
  | For converged numbers, create a DOS and/or band structure plot on a denser k-grid.

  Highest occupied state (VBM) at     -5.62229366 eV (relative to internal zero)
  | Occupation number:      2.00000000
  | K-point:      30 at    0.625000    0.625000    0.000000 (in units of recip. lattice)

  Lowest unoccupied state (CBM) at    -3.78438076 eV (relative to internal zero)
  | Occupation number:      0.00000000
  | K-point:       7 at    0.125000    0.125000    0.000000 (in units of recip. lattice)

  The gap value is above 0.2 eV. Unless you are using a very sparse k-point grid,
  this system is most likely an insulator or a semiconductor.
  ESTIMATED overall HOMO-LUMO gap:      1.83791291 eV between HOMO at k-point 30 and LUMO at k-point 7
  | This appears to be an indirect band gap.
  | Smallest direct gap :      2.30639935 eV for k_point 30 at    0.625000    0.625000    0.000000 (in units of recip. lattice)

  Total energy components:
  | Sum of eigenvalues            :       -2927.68843294 Ha      -79666.45564486 eV
  | XC energy correction          :        -175.63661041 Ha       -4779.31533819 eV
  | XC potential correction       :         228.36483263 Ha        6214.12326705 eV
  | Free-atom electrostatic energy:       -2013.22433866 Ha      -54782.62156392 eV
  | Hartree energy correction     :           0.61274341 Ha          16.67359648 eV
  | vdW energy correction         :           0.00000000 Ha           0.00000000 eV
  | Entropy correction            :          -0.00000000 Ha          -0.00000000 eV
  | ---------------------------
  | Total energy                  :       -4887.57180596 Ha     -132997.59568343 eV
  | Total energy, T -> 0          :       -4887.57180596 Ha     -132997.59568343 eV  <-- do not rely on this value for anything but (periodic) metals
  | Electronic free energy        :       -4887.57180596 Ha     -132997.59568343 eV

  Derived energy quantities:
  | Kinetic energy                :        5018.16072787 Ha      136551.10104890 eV
  | Electrostatic energy          :       -9730.09592342 Ha     -264769.38139415 eV
  | Energy correction for multipole
  | error in Hartree potential    :          -0.00014504 Ha          -0.00394686 eV
  | Sum of eigenvalues per atom                           :      -26555.48521495 eV
  | Total energy (T->0) per atom                          :      -44332.53189448 eV  <-- do not rely on this value for anything but (periodic) metals
  | Electronic free energy per atom                       :      -44332.53189448 eV
  Evaluating new KS density using the density matrix
  Evaluating density matrix
  Time summed over all CPUs for getting density from density matrix: real work        1.358 s, elapsed        1.597 s
  Integration grid: deviation in total charge (<rho> - N_e) =   0.000000E+00

  Self-consistency convergence accuracy:
  | Change of charge density      :  0.2896E+00
  | Change of unmixed KS density  :  0.1557E+03
  | Change of sum of eigenvalues  : -0.1618E+02 eV
  | Change of total energy        :  0.3917E+00 eV


------------------------------------------------------------
  End self-consistency iteration #     1       :  max(cpu_time)    wall_clock(cpu1)
  | Time for this iteration                     :        0.240 s           0.120 s
  | Charge density update                       :        0.117 s           0.058 s
  | Density mixing & preconditioning            :        0.029 s           0.014 s
  | Hartree multipole update                    :        0.001 s           0.001 s
  | Hartree multipole summation                 :        0.020 s           0.010 s
  | Integration                                 :        0.062 s           0.031 s
  | Solution of K.-S. eqns.                     :        0.007 s           0.004 s
  | Total energy evaluation                     :        0.000 s           0.000 s

  Partial memory accounting:
  | Current value for overall tracked memory usage:
  |   Minimum:        2.332 MB (on task 13)
  |   Maximum:        2.450 MB (on task  2)
  |   Average:        2.376 MB
  | Peak value for overall tracked memory usage:
  |   Minimum:        9.936 MB (on task  2 after allocating gradient_basis_wave)
  |   Maximum:       11.999 MB (on task  7 after allocating gradient_basis_wave)
  |   Average:       10.887 MB
  | Largest tracked array allocation so far:
  |   Minimum:        2.542 MB (gradient_basis_wave on task  2)
  |   Maximum:        3.507 MB (hamiltonian_shell on task  7)
  |   Average:        2.932 MB
  Note:  These values currently only include a subset of arrays which are explicitly tracked.
  The "true" memory usage will be greater.
------------------------------------------------------------

------------------------------------------------------------
          Begin self-consistency iteration #    2

  Date     :  20260625, Time     :  174118.285
------------------------------------------------------------
  Pulay mixing of updated and previous charge densities.
  Available memory per node after mixing [GB]:    511.25
  Renormalizing the density to the exact electron count on the 3D integration grid.
  | Formal number of electrons (from input files) :      74.0000000000
  | Integrated number of electrons on 3D grid     :      73.9999448913
  | Charge integration error                      :      -0.0000551087
  | Normalization factor for density and gradient :       1.0000007447

  Evaluating partitioned Hartree potential by multipole expansion.
  | Original multipole sum: apparent total charge =  -0.199734E-13
  | Sum of charges compensated after spline to logarithmic grids =   0.790859E-06
  | Analytical far-field extrapolation by fixed multipoles:
  | Hartree multipole sum: apparent total charge =  -0.199980E-13
  Summing up the Hartree potential.
  Time summed over all CPUs for potential: real work        0.008 s, elapsed        0.009 s
  | RMS charge density error from multipole expansion :   0.103268E-01
  | Average real-space part of the electrostatic potential :     -0.00862101 eV

  Integrating Hamiltonian matrix: batch-based integration.
  Time summed over all CPUs for integration: real work        0.703 s, elapsed        0.822 s

  Updating Kohn-Sham eigenvalues and eigenvectors using ELSI and the (modified) LAPACK eigensolver.
  Starting LAPACK eigensolver
  Finished Cholesky decomposition
  | Time :     0.001 s
  Finished transformation to standard eigenproblem
  | Time :     0.000 s
  Finished solving standard eigenproblem
  | Time :     0.001 s
  Finished back-transformation of eigenvectors
  | Time :     0.000 s

  Obtaining occupation numbers and electronic chemical potential using ELSI.
  | Note that, for insulating systems, the printed 'chemical potential' value is not uniquely defined.
  | It can be anywhere in the energy gap, as long as it correctly separates occupied and unoccupied states.
  | In systems with a gap, the physically relevant chemical potential is the VBM or HOMO.

  | Chemical potential (Fermi level):    -5.66624829 eV
  What follows are estimated values for band gap, HOMO, LUMO, etc.
  | They are estimated on a discrete k-point grid and not necessarily exact.
  | For converged numbers, create a DOS and/or band structure plot on a denser k-grid.

  Highest occupied state (VBM) at     -6.59827822 eV (relative to internal zero)
  | Occupation number:      2.00000000
  | K-point:       1 at    0.000000    0.000000    0.000000 (in units of recip. lattice)

  Lowest unoccupied state (CBM) at    -4.73421836 eV (relative to internal zero)
  | Occupation number:      0.00000000
  | K-point:      32 at    0.750000    0.625000    0.000000 (in units of recip. lattice)

  The gap value is above 0.2 eV. Unless you are using a very sparse k-point grid,
  this system is most likely an insulator or a semiconductor.
  ESTIMATED overall HOMO-LUMO gap:      1.86405987 eV between HOMO at k-point 1 and LUMO at k-point 32
  | This appears to be an indirect band gap.
  | Smallest direct gap :      1.98646925 eV for k_point 32 at    0.750000    0.625000    0.000000 (in units of recip. lattice)

  Checking to see if s.c.f. parameters should be adjusted.
  The system likely has a gap. Increased the default Pulay mixing parameter (charge_mix_param). Value:   0.200000 .
  Kept the default occupation width. Value:   0.010000 eV.

  Total energy components:
  | Sum of eigenvalues            :       -2931.45828890 Ha      -79769.03864495 eV
  | XC energy correction          :        -175.56021254 Ha       -4777.23644634 eV
  | XC potential correction       :         228.26367873 Ha        6211.37072922 eV
  | Free-atom electrostatic energy:       -2013.22433866 Ha      -54782.62156392 eV
  | Hartree energy correction     :           4.44889743 Ha         121.06065867 eV
  | vdW energy correction         :           0.00000000 Ha           0.00000000 eV
  | Entropy correction            :          -0.00000000 Ha          -0.00000000 eV
  | ---------------------------
  | Total energy                  :       -4887.53026394 Ha     -132996.46526732 eV
  | Total energy, T -> 0          :       -4887.53026394 Ha     -132996.46526732 eV  <-- do not rely on this value for anything but (periodic) metals
  | Electronic free energy        :       -4887.53026394 Ha     -132996.46526732 eV

  Derived energy quantities:
  | Kinetic energy                :        5017.31835251 Ha      136528.17884907 eV
  | Electrostatic energy          :       -9729.28840391 Ha     -264747.40767006 eV
  | Energy correction for multipole
  | error in Hartree potential    :          -0.00094989 Ha          -0.02584773 eV
  | Sum of eigenvalues per atom                           :      -26589.67954832 eV
  | Total energy (T->0) per atom                          :      -44332.15508911 eV  <-- do not rely on this value for anything but (periodic) metals
  | Electronic free energy per atom                       :      -44332.15508911 eV
  Evaluating new KS density using the density matrix
  Evaluating density matrix
  Time summed over all CPUs for getting density from density matrix: real work        1.351 s, elapsed        1.584 s
  Integration grid: deviation in total charge (<rho> - N_e) =   2.842171E-14

  Self-consistency convergence accuracy:
  | Change of charge density      :  0.2560E+00
  | Change of unmixed KS density  :  0.2605E-01
  | Change of sum of eigenvalues  : -0.1026E+03 eV
  | Change of total energy        :  0.1130E+01 eV


------------------------------------------------------------
  End self-consistency iteration #     2       :  max(cpu_time)    wall_clock(cpu1)
  | Time for this iteration                     :        0.238 s           0.119 s
  | Charge density update                       :        0.116 s           0.058 s
  | Density mixing & preconditioning            :        0.029 s           0.015 s
  | Hartree multipole update                    :        0.001 s           0.000 s
  | Hartree multipole summation                 :        0.021 s           0.011 s
  | Integration                                 :        0.062 s           0.031 s
  | Solution of K.-S. eqns.                     :        0.007 s           0.003 s
  | Total energy evaluation                     :        0.000 s           0.000 s

  Partial memory accounting:
  | Current value for overall tracked memory usage:
  |   Minimum:        2.333 MB (on task 13)
  |   Maximum:        2.451 MB (on task  2)
  |   Average:        2.377 MB
  | Peak value for overall tracked memory usage:
  |   Minimum:        9.937 MB (on task  2 after allocating gradient_basis_wave)
  |   Maximum:       12.000 MB (on task  7 after allocating gradient_basis_wave)
  |   Average:       10.888 MB
  | Largest tracked array allocation so far:
  |   Minimum:        2.542 MB (gradient_basis_wave on task  2)
  |   Maximum:        3.507 MB (hamiltonian_shell on task  7)
  |   Average:        2.932 MB
  Note:  These values currently only include a subset of arrays which are explicitly tracked.
  The "true" memory usage will be greater.
------------------------------------------------------------

------------------------------------------------------------
          Begin self-consistency iteration #    3

  Date     :  20260625, Time     :  174118.404
------------------------------------------------------------
  Pulay mixing of updated and previous charge densities.
  Available memory per node after mixing [GB]:    511.25
  Renormalizing the density to the exact electron count on the 3D integration grid.
  | Formal number of electrons (from input files) :      74.0000000000
[...]
  ----------------------------------------------------------------------
  | Atom     2: S
  |   Hirshfeld charge        :     -0.11775019
  |   Free atom volume        :     75.31177390
  |   Hirshfeld volume        :     74.80888972
  |   Hirshfeld dipole vector :     -0.00000030      -0.00002552       0.13271938
  |   Hirshfeld dipole moment :      0.13271939
  |   Hirshfeld second moments:      0.00615653       0.00000006       0.00000018
  |                                  0.00000006       0.00598833       0.00004341
  |                                  0.00000018       0.00004341      -0.04960672
  ----------------------------------------------------------------------
  | Atom     3: S
  |   Hirshfeld charge        :     -0.11775050
  |   Free atom volume        :     75.31177390
  |   Hirshfeld volume        :     74.80888808
  |   Hirshfeld dipole vector :     -0.00000030      -0.00002552      -0.13271939
  |   Hirshfeld dipole moment :      0.13271939
  |   Hirshfeld second moments:      0.00615658       0.00000006      -0.00000018
  |                                  0.00000006       0.00598839      -0.00004340
  |                                 -0.00000018      -0.00004340      -0.04960681
  ----------------------------------------------------------------------

  Libmbd: Calculating MBD energy...
  Libmbd: Evaluated energy: -0.22304581130868899E-001

  Leaving Libmbd.


  Total energy components:
  | Sum of eigenvalues            :       -2929.98131373 Ha      -79728.84810560 eV
  | XC energy correction          :        -175.59400919 Ha       -4778.15610001 eV
  | XC potential correction       :         228.30769493 Ha        6212.56847118 eV
  | Free-atom electrostatic energy:       -2013.07129744 Ha      -54778.45710067 eV
  | Hartree energy correction     :           2.81184869 Ha          76.51429589 eV
  | vdW energy correction         :          -0.02230458 Ha          -0.60693853 eV
  | Entropy correction            :          -0.00000000 Ha          -0.00000000 eV
  | ---------------------------
  | Total energy                  :       -4887.54938132 Ha     -132996.98547774 eV
  | Total energy, T -> 0          :       -4887.54938132 Ha     -132996.98547774 eV  <-- do not rely on this value for anything but (periodic) metals
  | Electronic free energy        :       -4887.54938132 Ha     -132996.98547774 eV

  Derived energy quantities:
  | Kinetic energy                :        5018.12615985 Ha      136550.16040516 eV
  | Electrostatic energy          :       -9730.05922739 Ha     -264768.38284435 eV
  | Energy correction for multipole
  | error in Hartree potential    :          -0.00125468 Ha          -0.03414171 eV
  | Sum of eigenvalues per atom                           :      -26576.28270187 eV
  | Total energy (T->0) per atom                          :      -44332.32849258 eV  <-- do not rely on this value for anything but (periodic) metals
  | Electronic free energy per atom                       :      -44332.32849258 eV

  atomic forces [eV/Ang]:
  -----------------------
  atom #    1
   Hellmann-Feynman              :  0.262896E-03 -0.396053E-03  0.211773E-03
   Ionic forces                  :  0.000000E+00  0.000000E+00  0.000000E+00
   Multipole                     :  0.789173E-06 -0.140765E-02  0.767196E-06
   Hartree pot. SCF incomplete   : -0.171505E-07  0.919128E-06 -0.425253E-06
   Pulay + GGA                   : -0.221258E-03  0.171844E-02 -0.171983E-03
   Van der Waals                 : -0.213538E-05 -0.380209E-04  0.121636E-06
   ----------------------------------------------------------------
   Total forces(   1)            :  0.402743E-04 -0.122372E-03  0.402529E-04
  atom #    2
   Hellmann-Feynman              : -0.253200E-04  0.328985E-02  0.251598E+02
   Ionic forces                  :  0.000000E+00  0.000000E+00  0.000000E+00
   Multipole                     :  0.182295E-05 -0.122510E-03 -0.161006E+00
   Hartree pot. SCF incomplete   :  0.334841E-07 -0.117520E-05 -0.705450E-06
   Pulay + GGA                   :  0.959617E-06 -0.324137E-02 -0.249546E+02
   Van der Waals                 :  0.106785E-05  0.190087E-04 -0.441567E-01
   ----------------------------------------------------------------
   Total forces(   2)            : -0.214361E-04 -0.561919E-04  0.795963E-04
  atom #    3
   Hellmann-Feynman              : -0.253326E-04  0.329014E-02 -0.251599E+02
   Ionic forces                  :  0.000000E+00  0.000000E+00  0.000000E+00
   Multipole                     :  0.182369E-05 -0.122517E-03  0.161006E+00
   Hartree pot. SCF incomplete   :  0.335200E-07 -0.117661E-05  0.112494E-05
   Pulay + GGA                   :  0.935549E-06 -0.324130E-02  0.249546E+02
   Van der Waals                 :  0.106753E-05  0.190122E-04  0.441566E-01
   ----------------------------------------------------------------
   Total forces(   3)            : -0.214723E-04 -0.558353E-04 -0.118975E-03


  Analytical stress tensor components [eV]         xx                  yy                  zz                  xy                  xz                  yz
  -----------------------------------------------------------------------------------------------------------------------------------------------------------
    Nuclear Hellmann-Feynman      :    -0.1750777634E+02   -0.1751051334E+02    0.1060988021E+02    0.1115357235E-03   -0.5894642475E-07    0.6833341315E-06
    Multipole Hellmann-Feynman    :    -0.7564329005E+02   -0.7564988601E+02   -0.4698379689E+02    0.2533734582E-03   -0.1197074799E-06    0.1341931894E-05
    On-site Multipole corrections :    -0.4394710525E+01   -0.4393808379E+01   -0.4393930149E+01   -0.1298203807E-06    0.1237430502E-10    0.4245933408E-08
    Strain deriv. of the orbitals :     0.9688160474E+02    0.9689018954E+02    0.4058263993E+02   -0.2599130926E-03    0.1309140445E-06   -0.1463431228E-05
    vdW correction                :     0.6639401078E+00    0.6639700778E+00    0.1437507983E+00   -0.2230275724E-05   -0.4999712701E-09    0.5551416737E-08
  -----------------------------------------------------------------------------------------------------------------------------------------------------------
  Sum of all contributions        :    -0.2320612232E-03   -0.4810580116E-04   -0.4145609290E-01    0.1026359930E-03   -0.4822745715E-07    0.5716321473E-06

  +-------------------------------------------------------------------+
  |              Analytical stress tensor - Symmetrized               |
  |                  Cartesian components [eV/A**3]                   |
  +-------------------------------------------------------------------+
  |                x                y                z                |
  |                                                                   |
  |  x        -0.00000116       0.00000051      -0.00000000           |
  |  y         0.00000051      -0.00000024       0.00000000           |
  |  z        -0.00000000       0.00000000      -0.00020634           |
  |                                                                   |
  |  Pressure:       0.00006925   [eV/A**3]                           |
  |                                                                   |
  +-------------------------------------------------------------------+

 * Warning: Stress tensor is anisotropic. Be aware that pressure is an isotropic quantity.

  Timings for VdW-like correction (Tkatchenko-Scheffler, MBD, XDM, LL and others):
  | CPU time:        0.037 s, Wall clock time:        0.020 s.
  Removing unitary transformations (pure translations, rotations) from forces on atoms.
  Atomic forces before filtering:
  | Net force on center of mass :  -0.263406E-05 -0.234399E-03  0.873947E-06 eV/A
  Atomic forces after filtering:
  | Net force on center of mass :   0.000000E+00  0.653343E-19  0.000000E+00 eV/A

  Energy and forces in a compact form:
  | Total energy uncorrected      :         -0.132996985477740E+06 eV
  | Total energy corrected        :         -0.132996985477740E+06 eV  <-- do not rely on this value for anything but (periodic) metals
  | Electronic free energy        :         -0.132996985477740E+06 eV
  Total atomic forces (unitary forces were cleaned, then relaxation constraints were applied) [eV/Ang]:
  |    1          0.411522886369661E-04         -0.442387077345611E-04          0.399615934486306E-04
  |    2         -0.205580491232748E-04          0.219410975424753E-04          0.793049549673263E-04
  |    3         -0.205942395136912E-04          0.222976101920859E-04         -0.119266548415957E-03

  ------------------------------------ 
  Start decomposition of the XC Energy 
  ------------------------------------ 
  X and C from original XC functional choice 
  Hartree-Fock Energy :          0.000000000 Ha              0.000000000 eV
  X Energy            :       -172.113341572 Ha          -4683.442315085 eV
  C Energy            :         -3.480667620 Ha            -94.713784925 eV
  XC Energy w/o HF    :       -175.594009192 Ha          -4778.156100009 eV
  Total XC Energy     :       -175.594009192 Ha          -4778.156100009 eV
  ------------------------------------ 
  LDA X and C from self-consistent density 
  X Energy LDA        :       -162.565418719 Ha          -4423.630115170 eV
  C Energy LDA        :         -6.409309623 Ha           -174.406188518 eV
  ------------------------------------ 
  End decomposition of the XC Energy 
  ------------------------------------ 

------------------------------------------------------------
  Relaxation / MD: End force evaluation.       :  max(cpu_time)    wall_clock(cpu1)
  | Time for this force evaluation              :        5.157 s           2.656 s

------------------------------------------------------------
  Geometry optimization: Attempting to predict improved coordinates.

  +-------------------------------------------------------------------+
  | Generalized derivatives on lattice vectors [eV/A]                 |
  +-------------------------------------------------------------------+
  |lattice_vector      -0.00005463       0.00002367       0.00000009  |
  |lattice_vector       0.00003747      -0.00001756       0.00000021  |
  |lattice_vector      -0.00000000       0.00000002      -0.00178767  |
  +-------------------------------------------------------------------+
  | Forces on lattice vectors cleaned from atomic contributions [eV/A]|
  +-------------------------------------------------------------------+
  |lattice_vector       0.00005463      -0.00002367      -0.00000009  |
  |lattice_vector      -0.00003747       0.00001756      -0.00000021  |
  |lattice_vector       0.00000000      -0.00000002       0.00178767  |
  +-------------------------------------------------------------------+
  Removing unitary transformations (pure translations, rotations) from forces on atoms.
  Atomic forces before filtering:
  | Net force on center of mass :   0.000000E+00  0.653343E-19  0.000000E+00 eV/A
  Atomic forces after filtering:
  | Net force on center of mass :   0.000000E+00  0.000000E+00  0.000000E+00 eV/A
  Net remaining forces (excluding translations, rotations) in present geometry:
  || Forces on atoms   || =   0.119267E-03 eV/A.
  || Forces on lattice || =   0.546340E-04 eV/A^3.
  Maximum force component is  0.119267E-03 eV/A.
  Present geometry is converged.

------------------------------------------------------------
  Final atomic structure:
                         x [A]             y [A]             z [A]
  lattice_vector         3.16296751       -0.00004949        0.00000000
  lattice_vector        -1.58143232        2.73910373        0.00000000
  lattice_vector         0.00000000        0.00000000       23.19000000

            atom        -0.00000082        0.00000411       11.59499914  Mo
            atom         1.58150131        0.91299955       13.16607575  S
            atom         1.58150131        0.91299952       10.02392511  S

  Fractional coordinates:
                         L1                L2                L3
       atom_frac         0.00000049        0.00000150        0.49999996  Mo
       atom_frac         0.66666642        0.33333259        0.56774798  S
       atom_frac         0.66666642        0.33333258        0.43225205  S
------------------------------------------------------------

------------------------------------------------------------------------------
  Final output of selected total energy values:

  The following output summarizes some interesting total energy values
  at the end of a run (AFTER all relaxation, molecular dynamics, etc.).

  | Total energy of the DFT / Hartree-Fock s.c.f. calculation      :        -132996.985477740 eV
  | Final zero-broadening corrected energy (caution - metals only) :        -132996.985477740 eV
  | For reference only, the value of 1 Hartree used in FHI-aims is :             27.211384500 eV
  | For reference only, the overall average (free atom contribution
  | + realspace contribution) of the electrostatic potential after
  | s.c.f. convergence is                                          :             -4.749243852 eV

  Before relying on these values, please be sure to understand exactly which
  total energy value is referred to by a given number. Different objects may
  all carry the same name 'total energy'. Definitions:

  Total energy of the DFT / Hartree-Fock s.c.f. calculation:
  | Note that this energy does not include ANY quantities calculated after the
  | s.c.f. cycle, in particular not ANY RPA, MP2, etc. many-body perturbation terms.

  Final zero-broadening corrected energy:
  | For metallic systems only, a broadening of the occupation numbers at the Fermi
  | level can be extrapolated back to zero broadening by an electron-gas inspired
  | formula. For all systems that are not real metals, this value can be
  | meaningless and should be avoided.

------------------------------------------------------------------------------
  Methods described in the following list of references were used in this FHI-aims run.
  If you publish the results, please make sure to cite these reference if they apply.
  FHI-aims is an academic code, and for our developers (often, Ph.D. students
  and postdocs), scientific credit in the community is essential.
  Thank you for helping us!

  For any use of FHI-aims, please cite:

    Volker Blum, Ralf Gehrke, Felix Hanke, Paula Havu, Ville Havu,
    Xinguo Ren, Karsten Reuter, and Matthias Scheffler
    'Ab initio molecular simulations with numeric atom-centered orbitals'
    Computer Physics Communications 180, 2175-2196 (2009)
    http://doi.org/10.1016/j.cpc.2009.06.022


  For the analytical stress tensor used in your run, please cite:

    Franz Knuth, Christian Carbogno, Viktor Atalla, Volker Blum, Matthias Scheffler
    'All-electron formalism for total energy strain derivatives and
    stress tensor components for numeric atom-centered orbitals'
    Computer Physics Communications 190, 33-50 (2015).
    http://doi.org/10.1016/j.cpc.2015.01.003


  The provided symmetry information was generated with SPGlib:

    Atsushi Togo, Yusuke Seto, Dimitar Pashov
    SPGlib 1.7.3 obtained from http://spglib.sourceforge.net
    Licence: New BSD license
    Copyright (C) 2008 Atsushi Togo


  The ELSI infrastructure was used in your run to solve the Kohn-Sham electronic structure.
  Please check out https://wordpress.elsi-interchange.org to learn more.
  If scalability is important for your project, please acknowledge ELSI by citing:

    V. W-z. Yu, F. Corsetti, A. Garcia, W. P. Huhn, M. Jacquelin, W. Jia,
    B. Lange, L. Lin, J. Lu, W. Mi, A. Seifitokaldani, A. Vazquez-Mayagoitia,
    C. Yang, H. Yang, and V. Blum
    'ELSI: A unified software interface for Kohn-Sham electronic structure solvers'
    Computer Physics Communications 222, 267-285 (2018).
    http://doi.org/10.1016/j.cpc.2017.09.007


  For the real-space grid partitioning and parallelization used in this calculation, please cite:

    Ville Havu, Volker Blum, Paula Havu, and Matthias Scheffler,
    'Efficient O(N) integration for all-electron electronic structure calculation'
    'using numerically tabulated basis functions'
    Journal of Computational Physics 228, 8367-8379 (2009).
    http://doi.org/10.1016/j.jcp.2009.08.008

  Of course, there are many other important community references, e.g., those cited in the
  above references. Our list is limited to references that describe implementations in the
  FHI-aims code. The reason is purely practical (length of this list) - please credit others as well.
------------------------------------------------------------
Warnings summary:

At least    0 warnings were raised during execution.
** WARNING:
 * A warning was issued further up regarding the accuracy of onsite integrals.
   An integral with a negative eigenvalue was among the flagged integrals.
   In most standard situations, this warning is probably harmless.
   If needed, this can be verified by adjusting the radial_multiplier flag.
** END OF WARNING

------------------------------------------------------------
          Leaving FHI-aims.
          Date     :  20260625, Time     :  174141.213

          Computational steps:
          | Number of self-consistency cycles          :           96
          | Number of SCF (re)initializations          :            8
          | Number of relaxation steps                 :            7

          Detailed time accounting                     :  max(cpu_time)    wall_clock(cpu1)
          | Total time                                  :       45.477 s          23.435 s
          | Preparation time                            :        0.196 s           0.197 s
          | Boundary condition initalization            :        0.269 s           0.129 s
          | Grid partitioning                           :        0.432 s           0.225 s
          | Preloading free-atom quantities on grid     :        0.182 s           0.089 s
          | Free-atom superposition energy              :        0.028 s           0.014 s
          | Total time for integrations                 :        6.386 s           3.201 s
          | Total time for solution of K.-S. equations  :        0.683 s           0.347 s
          | Total time for EV reorthonormalization      :        0.009 s           0.003 s
          | Total time for density & force components   :       29.325 s          14.665 s
          | Total time for mixing & preconditioning     :        2.189 s           1.084 s
          | Total time for Hartree multipole update     :        0.090 s           0.047 s
          | Total time for Hartree multipole sum        :        3.321 s           1.913 s
          | Total time for total energy evaluation      :        0.041 s           0.021 s
          | Total time NSC force correction             :        2.141 s           1.088 s
          | Total time for scaled ZORA corrections      :        0.000 s           0.000 s
          | Total time for vdW-like corrections         :        0.309 s           0.160 s

          Partial memory accounting:
          | Residual value for overall tracked memory usage across tasks:     0.000000 MB (should be 0.000000 MB)
          | Peak values for overall tracked memory usage:
          |   Minimum:       23.095 MB (on task 24 after allocating d_wave)
          |   Maximum:       27.899 MB (on task 15 after allocating d_wave)
          |   Average:       25.026 MB
          | Largest tracked array allocation:
          |   Minimum:        5.293 MB (hessian_basis_wave on task 24)
          |   Maximum:        6.491 MB (hessian_basis_wave on task 15)
          |   Average:        5.825 MB
          Note:  These values currently only include a subset of arrays which are explicitly tracked.
          The "true" memory usage will be greater.

          Have a nice day.
------------------------------------------------------------
